# vtk DataFile Version 3.0
3D MAGNET output
ASCII
DATASET STRUCTURED_GRID
DIMENSIONS 126 126 2
POINTS 31752 double
0 0 0
38.8511 0 0
77.7023 0 0
116.553 0 0
155.405 0 0
194.256 0 0
233.107 0 0
271.958 0 0
310.809 0 0
349.66 0 0
388.511 0 0
427.362 0 0
466.214 0 0
505.065 0 0
543.916 0 0
582.767 0 0
621.618 0 0
660.469 0 0
699.32 0 0
738.172 0 0
777.023 0 0
815.874 0 0
854.725 0 0
893.576 0 0
932.427 0 0
971.278 0 0
1010.13 0 0
1048.98 0 0
1087.83 0 0
1126.68 0 0
1165.53 0 0
1204.39 0 0
1243.24 0 0
1282.09 0 0
1320.94 0 0
1359.79 0 0
1398.64 0 0
1437.49 0 0
1476.34 0 0
1515.19 0 0
1554.05 0 0
1592.9 0 0
1631.75 0 0
1670.6 0 0
1709.45 0 0
1748.3 0 0
1787.15 0 0
1826 0 0
1864.85 0 0
1903.71 0 0
1942.56 0 0
1981.41 0 0
2020.26 0 0
2059.11 0 0
2097.96 0 0
2136.81 0 0
2175.66 0 0
2214.51 0 0
2253.37 0 0
2292.22 0 0
2331.07 0 0
2369.92 0 0
2408.77 0 0
2447.62 0 0
2486.47 0 0
2525.32 0 0
2564.17 0 0
2603.03 0 0
2641.88 0 0
2680.73 0 0
2719.58 0 0
2758.43 0 0
2797.28 0 0
2836.13 0 0
2874.98 0 0
2913.83 0 0
2952.69 0 0
2991.54 0 0
3030.39 0 0
3069.24 0 0
3108.09 0 0
3146.94 0 0
3185.79 0 0
3224.64 0 0
3263.5 0 0
3302.35 0 0
3341.2 0 0
3380.05 0 0
3418.9 0 0
3457.75 0 0
3496.6 0 0
3535.45 0 0
3574.3 0 0
3613.16 0 0
3652.01 0 0
3690.86 0 0
3729.71 0 0
3768.56 0 0
3807.41 0 0
3846.26 0 0
3885.11 0 0
3923.96 0 0
3962.82 0 0
4001.67 0 0
4040.52 0 0
4079.37 0 0
4118.22 0 0
4157.07 0 0
4195.92 0 0
4234.77 0 0
4273.62 0 0
4312.48 0 0
4351.33 0 0
4390.18 0 0
4429.03 0 0
4467.88 0 0
4506.73 0 0
4545.58 0 0
4584.43 0 0
4623.28 0 0
4662.14 0 0
4700.99 0 0
4739.84 0 0
4778.69 0 0
4817.54 0 0
4856.39 0 0
0 38.8511 0
38.8511 38.8511 0
77.7023 38.8511 0
116.553 38.8511 0
155.405 38.8511 0
194.256 38.8511 0
233.107 38.8511 0
271.958 38.8511 0
310.809 38.8511 0
349.66 38.8511 0
388.511 38.8511 0
427.362 38.8511 0
466.214 38.8511 0
505.065 38.8511 0
543.916 38.8511 0
582.767 38.8511 0
621.618 38.8511 0
660.469 38.8511 0
699.32 38.8511 0
738.172 38.8511 0
777.023 38.8511 0
815.874 38.8511 0
854.725 38.8511 0
893.576 38.8511 0
932.427 38.8511 0
971.278 38.8511 0
1010.13 38.8511 0
1048.98 38.8511 0
1087.83 38.8511 0
1126.68 38.8511 0
1165.53 38.8511 0
1204.39 38.8511 0
1243.24 38.8511 0
1282.09 38.8511 0
1320.94 38.8511 0
1359.79 38.8511 0
1398.64 38.8511 0
1437.49 38.8511 0
1476.34 38.8511 0
1515.19 38.8511 0
1554.05 38.8511 0
1592.9 38.8511 0
1631.75 38.8511 0
1670.6 38.8511 0
1709.45 38.8511 0
1748.3 38.8511 0
1787.15 38.8511 0
1826 38.8511 0
1864.85 38.8511 0
1903.71 38.8511 0
1942.56 38.8511 0
1981.41 38.8511 0
2020.26 38.8511 0
2059.11 38.8511 0
2097.96 38.8511 0
2136.81 38.8511 0
2175.66 38.8511 0
2214.51 38.8511 0
2253.37 38.8511 0
2292.22 38.8511 0
2331.07 38.8511 0
2369.92 38.8511 0
2408.77 38.8511 0
2447.62 38.8511 0
2486.47 38.8511 0
2525.32 38.8511 0
2564.17 38.8511 0
2603.03 38.8511 0
2641.88 38.8511 0
2680.73 38.8511 0
2719.58 38.8511 0
2758.43 38.8511 0
2797.28 38.8511 0
2836.13 38.8511 0
2874.98 38.8511 0
2913.83 38.8511 0
2952.69 38.8511 0
2991.54 38.8511 0
3030.39 38.8511 0
3069.24 38.8511 0
3108.09 38.8511 0
3146.94 38.8511 0
3185.79 38.8511 0
3224.64 38.8511 0
3263.5 38.8511 0
3302.35 38.8511 0
3341.2 38.8511 0
3380.05 38.8511 0
3418.9 38.8511 0
3457.75 38.8511 0
3496.6 38.8511 0
3535.45 38.8511 0
3574.3 38.8511 0
3613.16 38.8511 0
3652.01 38.8511 0
3690.86 38.8511 0
3729.71 38.8511 0
3768.56 38.8511 0
3807.41 38.8511 0
3846.26 38.8511 0
3885.11 38.8511 0
3923.96 38.8511 0
3962.82 38.8511 0
4001.67 38.8511 0
4040.52 38.8511 0
4079.37 38.8511 0
4118.22 38.8511 0
4157.07 38.8511 0
4195.92 38.8511 0
4234.77 38.8511 0
4273.62 38.8511 0
4312.48 38.8511 0
4351.33 38.8511 0
4390.18 38.8511 0
4429.03 38.8511 0
4467.88 38.8511 0
4506.73 38.8511 0
4545.58 38.8511 0
4584.43 38.8511 0
4623.28 38.8511 0
4662.14 38.8511 0
4700.99 38.8511 0
4739.84 38.8511 0
4778.69 38.8511 0
4817.54 38.8511 0
4856.39 38.8511 0
0 77.7023 0
38.8511 77.7023 0
77.7023 77.7023 0
116.553 77.7023 0
155.405 77.7023 0
194.256 77.7023 0
233.107 77.7023 0
271.958 77.7023 0
310.809 77.7023 0
349.66 77.7023 0
388.511 77.7023 0
427.362 77.7023 0
466.214 77.7023 0
505.065 77.7023 0
543.916 77.7023 0
582.767 77.7023 0
621.618 77.7023 0
660.469 77.7023 0
699.32 77.7023 0
738.172 77.7023 0
777.023 77.7023 0
815.874 77.7023 0
854.725 77.7023 0
893.576 77.7023 0
932.427 77.7023 0
971.278 77.7023 0
1010.13 77.7023 0
1048.98 77.7023 0
1087.83 77.7023 0
1126.68 77.7023 0
1165.53 77.7023 0
1204.39 77.7023 0
1243.24 77.7023 0
1282.09 77.7023 0
1320.94 77.7023 0
1359.79 77.7023 0
1398.64 77.7023 0
1437.49 77.7023 0
1476.34 77.7023 0
1515.19 77.7023 0
1554.05 77.7023 0
1592.9 77.7023 0
1631.75 77.7023 0
1670.6 77.7023 0
1709.45 77.7023 0
1748.3 77.7023 0
1787.15 77.7023 0
1826 77.7023 0
1864.85 77.7023 0
1903.71 77.7023 0
1942.56 77.7023 0
1981.41 77.7023 0
2020.26 77.7023 0
2059.11 77.7023 0
2097.96 77.7023 0
2136.81 77.7023 0
2175.66 77.7023 0
2214.51 77.7023 0
2253.37 77.7023 0
2292.22 77.7023 0
2331.07 77.7023 0
2369.92 77.7023 0
2408.77 77.7023 0
2447.62 77.7023 0
2486.47 77.7023 0
2525.32 77.7023 0
2564.17 77.7023 0
2603.03 77.7023 0
2641.88 77.7023 0
2680.73 77.7023 0
2719.58 77.7023 0
2758.43 77.7023 0
2797.28 77.7023 0
2836.13 77.7023 0
2874.98 77.7023 0
2913.83 77.7023 0
2952.69 77.7023 0
2991.54 77.7023 0
3030.39 77.7023 0
3069.24 77.7023 0
3108.09 77.7023 0
3146.94 77.7023 0
3185.79 77.7023 0
3224.64 77.7023 0
3263.5 77.7023 0
3302.35 77.7023 0
3341.2 77.7023 0
3380.05 77.7023 0
3418.9 77.7023 0
3457.75 77.7023 0
3496.6 77.7023 0
3535.45 77.7023 0
3574.3 77.7023 0
3613.16 77.7023 0
3652.01 77.7023 0
3690.86 77.7023 0
3729.71 77.7023 0
3768.56 77.7023 0
3807.41 77.7023 0
3846.26 77.7023 0
3885.11 77.7023 0
3923.96 77.7023 0
3962.82 77.7023 0
4001.67 77.7023 0
4040.52 77.7023 0
4079.37 77.7023 0
4118.22 77.7023 0
4157.07 77.7023 0
4195.92 77.7023 0
4234.77 77.7023 0
4273.62 77.7023 0
4312.48 77.7023 0
4351.33 77.7023 0
4390.18 77.7023 0
4429.03 77.7023 0
4467.88 77.7023 0
4506.73 77.7023 0
4545.58 77.7023 0
4584.43 77.7023 0
4623.28 77.7023 0
4662.14 77.7023 0
4700.99 77.7023 0
4739.84 77.7023 0
4778.69 77.7023 0
4817.54 77.7023 0
4856.39 77.7023 0
0 116.553 0
38.8511 116.553 0
77.7023 116.553 0
116.553 116.553 0
155.405 116.553 0
194.256 116.553 0
233.107 116.553 0
271.958 116.553 0
310.809 116.553 0
349.66 116.553 0
388.511 116.553 0
427.362 116.553 0
466.214 116.553 0
505.065 116.553 0
543.916 116.553 0
582.767 116.553 0
621.618 116.553 0
660.469 116.553 0
699.32 116.553 0
738.172 116.553 0
777.023 116.553 0
815.874 116.553 0
854.725 116.553 0
893.576 116.553 0
932.427 116.553 0
971.278 116.553 0
1010.13 116.553 0
1048.98 116.553 0
1087.83 116.553 0
1126.68 116.553 0
1165.53 116.553 0
1204.39 116.553 0
1243.24 116.553 0
1282.09 116.553 0
1320.94 116.553 0
1359.79 116.553 0
1398.64 116.553 0
1437.49 116.553 0
1476.34 116.553 0
1515.19 116.553 0
1554.05 116.553 0
1592.9 116.553 0
1631.75 116.553 0
1670.6 116.553 0
1709.45 116.553 0
1748.3 116.553 0
1787.15 116.553 0
1826 116.553 0
1864.85 116.553 0
1903.71 116.553 0
1942.56 116.553 0
1981.41 116.553 0
2020.26 116.553 0
2059.11 116.553 0
2097.96 116.553 0
2136.81 116.553 0
2175.66 116.553 0
2214.51 116.553 0
2253.37 116.553 0
2292.22 116.553 0
2331.07 116.553 0
2369.92 116.553 0
2408.77 116.553 0
2447.62 116.553 0
2486.47 116.553 0
2525.32 116.553 0
2564.17 116.553 0
2603.03 116.553 0
2641.88 116.553 0
2680.73 116.553 0
2719.58 116.553 0
2758.43 116.553 0
2797.28 116.553 0
2836.13 116.553 0
2874.98 116.553 0
2913.83 116.553 0
2952.69 116.553 0
2991.54 116.553 0
3030.39 116.553 0
3069.24 116.553 0
3108.09 116.553 0
3146.94 116.553 0
3185.79 116.553 0
3224.64 116.553 0
3263.5 116.553 0
3302.35 116.553 0
3341.2 116.553 0
3380.05 116.553 0
3418.9 116.553 0
3457.75 116.553 0
3496.6 116.553 0
3535.45 116.553 0
3574.3 116.553 0
3613.16 116.553 0
3652.01 116.553 0
3690.86 116.553 0
3729.71 116.553 0
3768.56 116.553 0
3807.41 116.553 0
3846.26 116.553 0
3885.11 116.553 0
3923.96 116.553 0
3962.82 116.553 0
4001.67 116.553 0
4040.52 116.553 0
4079.37 116.553 0
4118.22 116.553 0
4157.07 116.553 0
4195.92 116.553 0
4234.77 116.553 0
4273.62 116.553 0
4312.48 116.553 0
4351.33 116.553 0
4390.18 116.553 0
4429.03 116.553 0
4467.88 116.553 0
4506.73 116.553 0
4545.58 116.553 0
4584.43 116.553 0
4623.28 116.553 0
4662.14 116.553 0
4700.99 116.553 0
4739.84 116.553 0
4778.69 116.553 0
4817.54 116.553 0
4856.39 116.553 0
0 155.405 0
38.8511 155.405 0
77.7023 155.405 0
116.553 155.405 0
155.405 155.405 0
194.256 155.405 0
233.107 155.405 0
271.958 155.405 0
310.809 155.405 0
349.66 155.405 0
388.511 155.405 0
427.362 155.405 0
466.214 155.405 0
505.065 155.405 0
543.916 155.405 0
582.767 155.405 0
621.618 155.405 0
660.469 155.405 0
699.32 155.405 0
738.172 155.405 0
777.023 155.405 0
815.874 155.405 0
854.725 155.405 0
893.576 155.405 0
932.427 155.405 0
971.278 155.405 0
1010.13 155.405 0
1048.98 155.405 0
1087.83 155.405 0
1126.68 155.405 0
1165.53 155.405 0
1204.39 155.405 0
1243.24 155.405 0
1282.09 155.405 0
1320.94 155.405 0
1359.79 155.405 0
1398.64 155.405 0
1437.49 155.405 0
1476.34 155.405 0
1515.19 155.405 0
1554.05 155.405 0
1592.9 155.405 0
1631.75 155.405 0
1670.6 155.405 0
1709.45 155.405 0
1748.3 155.405 0
1787.15 155.405 0
1826 155.405 0
1864.85 155.405 0
1903.71 155.405 0
1942.56 155.405 0
1981.41 155.405 0
2020.26 155.405 0
2059.11 155.405 0
2097.96 155.405 0
2136.81 155.405 0
2175.66 155.405 0
2214.51 155.405 0
2253.37 155.405 0
2292.22 155.405 0
2331.07 155.405 0
2369.92 155.405 0
2408.77 155.405 0
2447.62 155.405 0
2486.47 155.405 0
2525.32 155.405 0
2564.17 155.405 0
2603.03 155.405 0
2641.88 155.405 0
2680.73 155.405 0
2719.58 155.405 0
2758.43 155.405 0
2797.28 155.405 0
2836.13 155.405 0
2874.98 155.405 0
2913.83 155.405 0
2952.69 155.405 0
2991.54 155.405 0
3030.39 155.405 0
3069.24 155.405 0
3108.09 155.405 0
3146.94 155.405 0
3185.79 155.405 0
3224.64 155.405 0
3263.5 155.405 0
3302.35 155.405 0
3341.2 155.405 0
3380.05 155.405 0
3418.9 155.405 0
3457.75 155.405 0
3496.6 155.405 0
3535.45 155.405 0
[...]
POINT_DATA 31752
SCALARS Density double 
LOOKUP_TABLE default
0.999452
1.00082
0.99891
0.999282
0.999666
0.999654
1.00073
0.999222
1.00081
1.00065
0.997668
0.999469
1.00024
1.00004
1.00063
1.00057
0.999366
0.999413
0.999611
1.00021
1.00168
1.00074
0.999138
1.0015
0.99993
0.998967
0.999727
1.00168
0.999247
1.0005
1.00204
0.999603
0.999894
1.00145
1.00112
1.00054
1.00234
1.00209
1.0019
1.00132
1.00052
1.00221
1.00194
1.00276
1.00349
1.00296
1.00365
1.00292
1.00308
1.00347
1.0031
1.0042
1.00385
1.00377
1.00485
1.00512
1.00535
1.00356
1.00407
1.00579
1.00465
1.00364
1.00516
1.0062
1.0047
1.00503
1.00415
1.00355
1.00486
1.00483
1.00377
1.00451
1.00352
1.00298
1.00407
1.00174
1.00488
1.00393
1.00231
1.00431
1.00372
1.00289
1.00188
1.00203
1.0038
1.0013
1.00093
1.00132
1.00049
1.00038
1.00198
1.00199
1.00059
1.00056
1.00066
1.00144
1.00134
1.00004
1.00032
1.00156
1.00006
1.00056
1.00107
1.00021
1.00106
0.998373
1.00068
1.00174
0.9997
0.998893
0.99941
0.999884
0.999611
0.999361
0.998769
1.00159
1.00104
0.998894
0.998365
0.999284
1.00056
0.999516
0.999423
0.998802
1.00038
1.00069
1.00065
1.00091
1.001
1.00061
0.999265
0.999106
1.00049
0.999667
0.999689
1.00043
1.0011
0.999367
0.997822
1.00117
0.99818
0.999415
1.00212
0.999041
0.998315
1.00038
1.00067
1.00053
1.00036
1.00143
0.999987
0.997979
1.00045
1.00214
1.00083
0.997982
0.999396
1.00156
1.00087
1.00049
1.00168
0.99971
1.00072
1.00056
1.00153
1.0017
1.00012
1.00036
1.00297
1.003
1.00129
1.00151
1.00231
1.00302
1.00207
1.00328
1.00242
1.00142
1.00115
1.00239
1.00149
1.002
1.00364
1.00335
1.00187
1.00321
1.00471
1.00404
1.00269
1.00443
1.00169
1.00307
1.00266
1.00216
1.00397
1.0039
1.00424
1.00337
1.00304
1.00423
1.00182
1.00141
1.00236
1.00318
1.00247
1.00205
1.00182
1.00159
1.00117
1.00136
1.00214
1.00204
0.999649
1.0005
1.0013
1.00098
1.00121
1.00023
0.999113
1.00063
1.00085
1.00073
0.999898
0.999073
1.00112
1.00125
0.99841
0.999731
1.00084
0.998644
0.999041
1.00038
1.00121
1.00006
1.00004
1.00075
1.00012
0.998796
0.99934
1.00118
0.999339
0.999061
1.00104
1.00126
0.997336
1.00008
1.00073
1.00012
1.00064
1.00052
1.0001
1.00105
1.00004
0.999835
0.999338
0.99996
1.0013
1.00118
0.998571
1.00011
0.999901
0.999428
1.00106
1.0001
0.999931
1.00095
1.00016
1.00004
0.998859
1.00046
1.00144
1.00062
0.999423
0.999361
1.00022
1.00049
1.00048
1.00206
0.999559
0.996109
0.998884
1.00237
1.00202
1.00115
1.00022
0.999355
0.998628
0.999745
1.00147
1.00135
1.00074
1.00061
1.00156
1.00042
1.00023
1.00104
1.00139
1.00072
1.00231
1.00239
0.999292
1.00228
1.0023
1.00083
1.00027
1.00102
1.00233
1.00268
1.0009
1.00118
1.00191
1.00203
1.00151
1.00219
1.00172
1.00089
1.00195
1.0024
1.00259
1.00176
1.00139
1.00225
1.00117
1.0014
1.00177
1.00237
1.00152
1.00163
1.00228
1.003
0.999277
0.999378
1.00083
1.00135
1.00142
1.0022
0.999969
1.00082
0.999084
1.00047
1.00061
1.00025
1.00164
0.999762
1.00152
1.00059
0.998993
1.00121
1.00007
0.999825
1.00049
0.998449
1.00081
1.00059
1.00035
1.00063
0.998588
1.00039
1.00062
0.999282
0.998468
1.00043
1.00017
0.999407
1.00055
0.999453
1.00016
1.00079
0.999247
1.00111
1.00054
1.00125
1.00159
1.00088
0.998923
0.99895
1.00073
1.00115
0.998101
0.999175
0.998543
0.998476
0.999765
0.999397
0.999912
1.00125
1.00023
0.998895
0.999846
1.00166
1.0012
0.998527
0.999279
1.00017
0.998768
1.00142
1.00119
0.999086
0.999732
1.0002
0.998074
1.0006
1.00141
1.00026
1.00022
1.00043
1.00038
1.00106
1.00014
0.999985
0.999561
1.00125
1.0005
1.00039
1.00025
1.0005
1.00234
1.00014
0.99802
1.0009
1.00145
1.0013
1.00055
1.00051
0.999288
1.00156
1.00104
1.00104
1.00272
1.00083
1.00216
1.00306
1.00205
1.0015
1.00147
1.00151
1.003
1.0026
1.00069
1.00148
1.00196
0.99927
1.00156
1.00326
1.00231
1.00082
0.999991
0.999803
1.00161
1.00319
1.00165
1.00014
1.00103
1.00214
1.0027
1.00087
1.0012
1.00246
1.00066
1.00092
1.00202
1.00132
1.00207
1.00088
0.999904
1.00151
1.00006
1.00148
1.00173
1.00019
1.00088
1.0006
1.00067
1.00112
1.00015
1.00112
0.999483
1.00028
1.00062
1.00074
1.00082
1.00067
0.999865
0.999614
0.999711
1.00117
1.00059
1.00098
1.00035
0.999865
0.999307
1.00001
0.999821
1.00071
0.999561
1.00098
1.00159
1.00048
0.999158
1.00071
1.00004
0.998947
0.999769
1.00082
1.00009
1.00106
1.00041
0.998985
1.00093
0.99986
0.999881
1.00028
1.00082
0.999592
1.00095
1.00099
0.998973
0.999235
1.00019
1.00044
1.00124
1.0004
1.00054
0.998566
1.00011
0.998754
0.998802
0.99879
1.00098
1.00109
1.00089
0.999531
1.00101
1.00092
0.999954
0.999061
0.999668
1.002
0.999608
0.999972
1.00063
1.00014
1.00217
1.00075
1.00099
1.00059
1.00042
1.00109
1.00139
1.00145
0.999678
1.00189
1.00174
0.999591
1.00119
1.00096
1.00267
1.00212
1.00244
1.00149
1.00155
1.00136
1.00057
1.00111
1.00219
1.00176
1.00266
1.00145
1.00125
1.00185
1.00149
1.0023
1.00275
1.00068
1.00159
1.00203
1.003
1.00138
1.00086
1.0026
1.00118
1.00034
1.00247
1.00044
1.00002
1.00207
1.00223
1.00073
1.00183
1.00118
1.00038
1.00035
1.0017
1.00112
1.0008
1.00074
1.00011
1.00177
1.00063
0.999312
0.99987
0.999507
0.999652
1.00079
0.999872
1.00063
1.00015
1.00058
1.00082
1.00019
1.00167
1.00047
0.998365
0.998978
0.999656
1.00126
1.0005
0.9999
1.00034
0.998583
1.00083
1.00127
0.998658
0.998204
1.00015
1.00024
1.00142
0.998301
0.999335
1.00021
1.00097
1.00136
1.00017
1.00114
1.00184
1.00141
0.998896
0.999423
1.00062
1.00141
0.999621
0.999837
0.999669
0.999626
1.00208
1.00078
0.999055
1.00062
1.00002
0.999441
0.999983
1.00084
0.999958
0.99951
1.0005
1.00166
0.999887
0.998708
1.00129
1.00096
1.00172
1.00062
0.999763
1.00135
1.00041
1.00205
1.0005
1.00122
1.0008
1.0019
1.00205
1.00122
1.0024
1.00109
1.00104
1.00233
1.00223
1.00176
1.00218
1.00133
1.00178
1.00221
1.00168
1.00118
1.00244
1.00215
1.00177
1.00077
1.00192
1.00076
1.00264
1.00237
1.00283
1.00228
1.00197
1.00237
1.00268
1.00275
1.00211
1.00318
1.00195
0.999487
1.00178
1.0023
1.00129
1.00127
1.00244
1.0014
1.00139
1.00137
1.00039
1.00058
1.0022
1.00164
1.00075
1.00069
1.00243
1.00008
1.00094
0.999862
1.00153
1.00005
1.0004
1.0009
1.00155
1.0008
1.00106
0.997198
1.00048
1.0006
1.00077
1.00044
0.999016
0.999884
0.999838
1.00015
1.00159
1.00069
1.00079
1.00043
0.999204
0.99943
1.00094
0.999027
1.00043
0.997899
1.00001
1.00021
0.999634
0.999511
1.00018
1.00106
1.00067
1.00054
0.999871
0.998792
0.999729
0.999423
1.00055
1.00095
1.00029
1.00023
0.998606
0.997993
0.999771
1.00038
0.999671
0.99907
1.0005
1.00068
1.0002
0.999825
0.999633
0.998447
1.0001
1.00012
0.999597
0.999336
1.0008
1.00159
0.9995
1.00061
1.00005
0.998529
1.0011
1.00189
0.999157
1.00048
1.002
0.999776
1.00093
1.00148
1.00071
1.00215
1.00081
1.00087
1.00198
1.00222
0.999386
1.00151
1.00202
1.00006
1.00275
1.00141
1.00113
1.00267
1.00241
1.00236
1.00103
1.00176
1.00164
1.00172
1.00272
1.00242
1.00179
1.00265
1.00321
1.00209
1.00063
1.00192
1.00111
1.00262
1.00248
1.00184
1.00226
1.00126
1.00114
1.00253
1.0011
1.00125
1.00238
1.00047
1.002
1.00249
1.00259
1.00055
1.00201
1.00137
1.00169
1.00135
1.00154
1.00223
1.00168
1.00096
1.00105
1.00168
0.999837
1.00098
1.00145
1.00098
1.00156
1.00112
1.00072
1.00054
1.00066
1.00165
1.00048
1.00008
0.999554
1.00113
0.999922
0.998713
1.00051
1.00153
0.999556
1.00053
1.00095
0.998284
1.00019
1.00039
1.0007
0.997982
1.00017
0.999769
0.998351
1.00087
0.999933
1.00012
0.999443
1.00029
1.0005
1.00123
0.999543
0.997294
1.00056
1.00083
1.00031
0.999501
1.00076
0.99888
0.999221
0.999432
1.00044
1.00042
0.999647
0.998061
0.998295
1.0011
1.00147
0.999385
1.00091
1.00051
1.00119
0.999981
0.999632
0.999953
0.999927
1.00109
1.00034
0.998588
1.00012
1.00175
1.00029
0.999876
1.00126
1.00095
1.00177
0.998635
1.00081
1.00221
1.00136
1.00118
1.0009
1.00237
1.00159
1.00082
1.00138
1.0025
1.00233
1.00123
1.00188
1.00148
1.00184
1.00253
1.00146
1.00269
1.00108
1.00141
1.0028
1.00277
1.00156
1.00177
1.00137
1.00238
1.00126
1.00159
1.00279
1.00119
1.00132
1.0021
1.00286
1.00242
1.0016
1.00196
1.00204
1.00188
1.00235
1.00296
1.00194
1.00252
1.00243
1.00091
1.00252
1.00241
1.00136
1.00289
1.00168
1.0007
1.00094
1.00231
1.00006
1.00095
1.00116
1.00233
1.00147
1.00132
1.00053
0.99977
1.00124
1.00171
0.999811
1.00129
1.00186
1.00007
0.999227
1.0009
1.00161
0.999983
0.998395
0.998901
0.999388
1.00104
1.00027
1.00038
0.998891
1.0002
0.998201
1.00253
1.00004
0.998868
1.00087
0.999079
0.998834
0.999213
0.999007
0.99939
1.00011
1.00114
1.00013
0.998614
0.998006
0.999146
1.00035
1.00085
1.00158
1.00145
0.999169
1.00145
0.999276
0.998999
0.998829
0.999579
1.00098
1.00118
1.00132
1.00174
0.999043
1.002
1.00102
1.00046
1.0002
1.00015
1.00126
1.00175
1.0005
1.00128
1.00144
0.999639
1.00048
0.999795
1.00021
1.0013
1.00104
1.00136
1.00227
1.00083
1.00167
1.00195
1.00216
1.00228
1.00147
1.00115
1.00236
1.0022
1.00262
1.00207
1.00178
1.00238
1.00266
1.0011
1.00168
1.00203
1.00116
1.00254
1.00251
1.00178
1.00208
1.00246
1.00211
1.00255
1.00284
1.00206
1.00219
1.00257
1.00241
1.00225
1.00101
1.00209
1.00199
1.00249
1.00284
1.00216
1.00132
1.00274
1.00166
1.00197
1.0022
1.00205
1.00267
1.00233
1.00154
1.00148
1.00231
1.00164
1.00086
1.00016
1.00169
1.00197
1.00104
1.00191
1.00107
1.00018
1.00121
1.00064
1.00079
1.00132
0.999968
0.999275
1.00049
0.999804
1.00124
0.999861
1.0011
0.999276
0.999989
1.00055
1.00022
1.00132
1.00119
0.999536
0.998981
1.00123
1.00127
1.00104
0.999804
1.00101
0.999959
0.999308
0.997629
1.00026
1.00101
0.999064
1.0011
0.999425
1.00093
1.00133
0.999862
0.999929
0.99933
1.00013
0.998445
1.00021
1.00153
1.00124
1.00041
0.998492
1.00066
1.00041
0.999698
1.00084
0.999917
0.999373
1.00084
0.99879
1.00088
1.00067
0.998672
1.00052
1.00217
1.00087
0.999801
1.00179
1.00167
1.00109
1.00039
1.00134
1.00128
1.00185
1.00144
1.00138
1.00066
1.0015
1.0018
1.00168
1.00213
1.00142
1.00149
1.00162
1.00146
1.00224
1.00123
1.00134
1.00217
1.00272
1.00248
1.00254
1.00204
1.00157
1.00297
1.00241
1.00307
1.00267
1.00178
1.00316
1.00179
1.00168
1.00195
1.00281
1.00286
1.00294
1.00253
1.00271
1.00159
1.00289
1.00257
1.00248
1.00202
1.00266
1.00209
1.0016
1.0022
1.00273
1.00176
1.00239
1.00174
1.00173
1.00188
1.00111
1.00255
1.00294
1.00165
1.0023
1.00261
1.00194
1.00016
1.0001
1.00118
1.00163
0.999379
1.00094
1.00157
1.00201
1.00042
1.00006
1.0016
1.00067
0.999757
0.999844
1.00042
1.00141
1.0016
1.00051
0.99916
0.997989
1.00143
1.0008
1.00079
1.00003
1.00094
0.998476
1.00134
1.00152
0.999302
1.00012
1.00146
0.999909
0.999754
0.999971
1.00035
1.00058
0.998585
1.00005
1.00092
1.00045
0.99937
0.999838
1.00009
0.999657
1.00094
1.00038
1.0002
1.00074
1.00004
1.00143
1.00057
0.999852
0.998265
0.998301
1.00202
1.00023
0.999294
0.999475
1.00116
1.00142
0.999826
0.999
1.00071
1.00218
0.999559
1.00112
1.0014
1.00273
1.00216
1.00059
1.00159
1.00148
0.998888
1.0015
1.00259
1.00176
1.00282
1.00234
1.00171
1.00096
1.00182
1.0032
1.00206
1.00248
1.0023
1.0019
1.00244
1.00291
1.00281
1.00273
1.00174
1.00184
1.00214
1.00191
1.00199
1.00249
1.00298
1.00233
1.00287
1.00312
1.002
1.00111
1.00286
1.00246
1.00303
1.00224
1.00236
1.00248
1.00312
1.00224
1.00195
1.00291
1.00337
1.00288
1.00138
1.00226
1.00188
1.00217
1.00235
1.00281
1.00111
1.00142
1.00194
1.00206
1.00235
1.00208
1.00097
0.999274
1.00226
1.00208
1.0021
1.00055
1.00181
1.00195
1.00074
1.00148
1.0003
1.00037
0.999501
1.00209
1.00079
1.00056
1.00028
1.00131
1.00007
0.999113
0.999325
0.999913
1.00039
1.00048
1.00048
0.998058
0.99967
0.998811
1.00005
1.0018
1.00184
1.00127
1.00009
1.00035
0.998815
1.00158
0.998578
0.999617
0.999226
0.999899
1.00123
0.999477
0.999182
1.00001
0.998349
1.00005
1.00055
1.00108
0.999998
1.0013
1.00076
1.00111
0.999355
0.998905
1.00039
1.00156
1.00086
1.00123
0.999543
1.0013
1.00036
0.999933
1.00185
1.0011
1.00135
1.00009
1.00059
1.00156
1.00213
1.0006
1.00159
1.00174
1.00252
1.00168
1.00266
1.00182
1.00287
1.00246
1.00163
1.00179
1.00239
1.00196
1.0026
1.00283
1.00231
1.00251
1.00231
1.0016
1.00164
1.00272
1.00189
1.00232
1.00195
1.00232
1.00323
1.00268
1.00257
1.00198
1.0031
1.00214
1.00234
1.00234
1.00192
1.00237
1.00288
1.0017
1.00233
1.00193
1.00229
1.00242
1.00308
1.00233
1.00223
1.00232
1.00199
1.00199
1.00281
1.00226
1.00144
1.00251
1.00149
1.00133
1.00092
1.00142
1.00198
1.00211
1.00238
1.00169
1.0022
1.00177
1.00022
1.00106
1.00112
1.00102
1.00092
1.00136
1.00034
0.998767
1.00105
1.00158
1.00081
1.00013
1.00036
1.00013
1.00161
1.00052
0.998971
1.00182
1.00031
0.999661
0.999817
0.99919
0.998754
1.00038
0.999185
0.998853
1.0011
1.00107
1.00072
0.997972
0.999945
1.00039
1.00023
0.999761
1.00121
1.00144
0.996778
0.999447
1.00134
0.998559
1.00124
0.999029
1.00112
0.99977
1.00005
0.999166
1.00181
0.998675
0.999826
1.00013
0.998975
1.0005
1.001
1.00062
1.0001
1.0008
1.00155
1.00113
1.00041
1.00059
1.00216
1.002
1.00235
1.00116
1.00004
1.00089
1.00298
1.00216
1.00094
1.00266
1.00274
1.00272
1.00108
1.00208
1.00242
1.00241
1.00255
1.00162
1.00173
1.00244
1.00201
1.00224
1.00206
1.00244
1.00279
1.00218
1.00235
1.00264
1.00204
1.00272
1.0026
1.00241
1.0026
1.00192
1.00214
1.00269
1.00243
1.00223
1.002
1.00226
1.00252
1.0028
1.00199
1.00211
1.00227
1.00249
1.00242
1.00258
1.00179
1.00218
1.00121
1.0025
1.00294
1.00241
1.00209
1.00234
1.00284
1.00157
1.00187
1.00292
1.00206
1.00212
1.00206
1.00249
1.00148
1.00138
1.00196
1.00128
0.999525
1.0016
1.00156
1.00035
1.00161
1.00166
1.00133
0.999726
0.999586
0.999595
0.99989
0.999689
1.00016
1.00022
1.00031
0.999588
1.00007
1.00025
0.998602
1.00142
1.00152
1.00136
0.999529
0.997295
1.00207
1.00119
0.999767
0.996608
1.00008
1.00102
1.00109
1.0002
1.00068
1.00011
0.999082
1.00085
1.00079
1.0002
1.00132
1.00114
0.999417
0.997847
0.999747
0.998992
1.00057
0.998899
0.999156
1.00199
1.00037
0.999412
1.00167
0.998752
1.0006
1.00143
0.999598
1.0019
1.00133
1.00132
1.00199
1.00177
1.00166
1.0025
1.00076
1.00203
1.00156
1.00225
1.0021
1.00154
1.00118
1.00272
1.0018
1.00265
1.00173
1.00273
1.00287
1.00159
1.00215
1.00223
1.00292
1.00268
1.00265
1.00191
1.00182
1.00255
1.00248
1.00241
1.00282
1.00268
1.00226
1.0022
1.00159
1.00218
1.00194
1.00256
1.00221
1.00176
1.00224
1.00279
1.00133
1.00236
1.00296
1.00174
1.00255
1.00247
1.00171
1.00259
1.00184
1.0019
1.00224
1.00295
1.00306
1.00303
1.00186
1.00125
1.00314
1.00242
1.00215
1.00234
1.00253
1.00252
1.00218
1.00247
1.00188
1.00151
1.0022
1.0024
1.00135
1.00022
1.00178
1.00159
1.0011
1.00068
1.00111
1.00141
1.00067
1.00064
1.00012
1.00077
1.00134
1.00097
1.00051
0.997861
1.00091
1.00065
1.00019
0.999963
0.999787
0.999702
1.00109
1.00067
1.00068
0.998924
0.998664
1.00165
1.00101
1.0003
1.00011
1.00006
1.00049
0.998303
1.00058
1.0015
0.999879
0.998676
0.997547
1.00138
1.00097
1.00076
0.998722
1.00086
0.998127
1.00069
1.00116
1.00021
1.00098
1.00089
1.00105
1.00131
0.999504
1.00182
1.00186
1.00016
1.0007
1.00234
1.00226
1.00116
1.00229
1.00221
1.00202
1.00294
1.00161
1.00077
1.00298
1.00252
1.00261
1.00153
1.00251
1.00279
1.00197
1.00247
1.00241
1.00291
1.00209
1.00277
1.0029
1.00184
1.00234
1.00233
1.0027
1.00228
1.0022
1.00243
1.00259
1.00242
1.0021
1.00216
1.00223
1.00235
1.00227
1.00241
1.00195
1.00218
1.00228
1.00228
1.00258
1.00207
1.00227
1.00202
1.00255
1.00242
1.00281
1.00225
1.00201
1.00202
1.00236
1.00154
1.00245
1.00255
1.00263
1.00256
1.00247
1.00248
1.00228
1.00256
1.00231
1.00243
1.0017
1.00141
1.00195
1.0016
1.00184
1.00259
1.00152
1.00179
1.00111
1.00099
1.00125
1.00246
1.00117
1.00058
1.00152
1.00069
1.0011
1.00154
1.00031
1.00153
1.00052
0.999628
1.00106
1.00156
0.997884
0.998284
1.0007
1.00117
1.00068
0.999319
0.997653
1.00019
1.00009
0.999807
1.00122
1.00068
1.0005
1.00024
0.999169
0.998605
1.00084
1.00109
0.99995
1.0003
1.00026
1.00053
0.999894
1.0017
0.999085
1.00076
1.00163
1.00105
1.00091
1.00047
1.00119
1.0023
0.999039
1.00058
1.00234
1.00186
1.00021
1.00116
1.00205
0.998932
1.00112
1.00295
1.00166
1.00147
1.00223
1.00242
1.00135
1.00234
1.00205
1.0021
1.00318
1.00246
1.00248
1.00235
1.0029
1.00269
1.0026
1.00183
1.00266
1.00287
1.00233
1.00213
1.00217
1.00238
1.00207
1.00181
1.00256
1.00244
1.00181
1.00224
1.00276
1.00217
1.00183
1.00233
1.00235
1.00232
1.00253
1.00244
1.00242
1.00192
1.0026
1.00262
1.00204
1.00247
1.00207
1.00216
1.00228
1.00241
1.00292
1.00162
1.00282
1.00208
1.00217
1.00224
1.00206
1.0022
1.00294
1.00202
1.00297
1.00231
1.00164
1.00194
1.00314
1.00212
1.00171
1.0021
1.00229
1.00137
1.00163
1.00247
1.001
1.00179
1.00285
1.00156
1.0006
1.00154
1.0011
1.00041
0.999823
1.00088
0.99858
1.0003
0.999786
1.00179
0.999118
1.00034
1.00042
0.999328
1.00127
1.00019
0.999199
0.99955
0.999316
1.00244
1.00148
0.998816
0.997777
1.00063
1.00042
0.999696
1.00039
1.00032
1.00092
0.999436
1.001
0.999873
1.00002
1.00073
1.00022
0.999406
1.00016
0.999186
1.00178
1.00115
0.999309
1.00099
1.00044
1.00096
1.00124
1.0012
1.00183
1.00043
1.00221
1.00092
1.0002
1.00123
1.00071
1.00072
1.00273
1.0027
1.00176
1.00205
1.00245
1.00202
1.00246
1.00304
1.00086
1.00207
1.00292
1.00204
1.00267
1.00171
1.00276
1.00177
1.00272
1.00194
1.00212
1.00252
1.00193
1.00254
1.00256
1.00237
1.00175
1.00227
1.002
1.00213
1.0019
1.00217
1.00211
1.00156
1.00213
1.00198
1.00197
1.00186
1.00217
1.00231
1.00188
1.0024
1.00227
1.00251
1.00201
1.00209
1.00246
1.00212
1.00256
1.00248
1.00221
1.00197
1.00267
1.00229
1.00172
1.0022
1.00241
1.00198
1.00258
1.00262
1.00278
1.00214
1.00237
1.00164
1.00171
1.00242
1.00293
1.00192
1.00186
1.00213
1.00262
1.00174
1.0012
1.00005
1.00144
1.0011
1.00159
1.00186
1.00253
0.999638
0.998584
1.00167
1.00087
1.00028
1.00176
0.999185
1.00081
1.00093
1.00116
1.00054
0.99834
1.00139
0.999739
1.00037
1.00101
0.999194
0.997821
1.00084
1.00081
1.00016
1.00115
0.999403
0.998623
1.00012
1.00035
1.00056
1.00029
0.999396
1.00068
0.998719
0.999783
1.00006
1.00107
1.00151
0.999659
1.00119
1.00114
0.999755
1.00103
1.0012
1.00157
1.00025
1.00226
1.00173
1.00128
1.00247
1.00164
1.00141
1.00277
1.00272
1.00183
1.00168
1.00185
1.0015
1.00279
1.00227
1.00182
1.00263
1.00238
1.00235
1.00235
1.00228
1.00209
1.00237
1.00195
1.00238
1.00201
1.00256
1.00242
1.00201
1.00243
1.00237
1.0017
1.0019
1.00209
1.00195
1.00222
1.00181
1.00186
1.00224
1.00214
1.00186
1.00224
1.00208
1.00187
1.00184
1.00202
1.00218
1.00222
1.0019
1.00216
1.00231
1.00248
1.00231
1.00185
1.00203
1.00206
1.00202
1.00226
1.00283
1.00285
1.00275
1.001
1.00233
1.00247
1.00219
1.00219
1.00268
1.00208
1.00161
1.00272
1.0029
1.00226
1.00281
1.00243
1.00166
1.00148
1.00185
1.00095
1.00166
1.00253
1.00108
1.00108
1.00056
1.00171
1.00198
1.00127
1.00082
1.00106
0.999099
1.00104
1.0016
1.00076
1.00055
0.998949
0.9992
0.997988
1.00071
1.00079
0.998313
1.00024
0.99922
1.00029
1.00031
1.00001
1.00078
1.00029
0.999865
1
1.00098
1.00024
1.0016
1.00002
0.999096
1.00084
1.00141
1.00068
1.00057
1.00128
0.999942
0.999244
1.00064
1.00157
1.00061
1.0009
1.00135
1.00169
1.00046
1.00105
1.00219
1.00174
1.00173
1.00269
1.00214
1.00147
1.00187
1.00227
1.00264
1.00252
1.00232
1.00284
1.00219
1.00297
1.00284
1.00229
1.00206
1.00232
1.00273
1.00165
1.00231
1.0024
1.00229
1.00218
1.00192
1.00222
1.00182
1.00193
1.00206
1.00221
1.002
1.00217
1.00175
1.00222
1.00212
1.0021
1.00217
1.00206
1.00196
1.00207
1.00215
1.00192
1.002
1.0019
1.00187
1.00199
1.00204
1.00199
1.00202
1.00204
1.00223
1.00219
1.00226
1.0025
1.00235
1.00223
1.0022
1.00216
1.00245
1.00223
1.00265
1.00223
1.00259
1.00227
1.00207
1.00271
1.00231
1.00265
1.0021
1.0016
1.00255
1.00267
1.00277
1.00153
1.00159
1.00168
1.00188
1.00173
1.00242
1.00236
1.00138
0.999184
0.999369
1.00093
1.00037
0.999874
1.00125
1.00084
1.00132
1.00087
1.00048
1.00141
0.999113
0.999791
1.00067
0.998725
0.998358
1.00107
1.00127
1.0003
0.999752
1.00021
0.999512
1.00002
1.00001
0.999485
0.999215
1.00034
1.00185
0.99955
0.998336
1.00133
1.00154
1.00052
1.00113
1.00036
0.998218
1.00092
1.00069
1.0011
1.00132
1.00049
1.00183
1.00206
1.00123
1.00144
1.00252
1.00199
1.00187
1.00291
1.00285
1.00196
1.00183
1.0023
1.00243
1.00237
1.0023
1.00248
1.00264
1.00253
1.00241
1.00221
1.00219
1.00205
1.00257
1.00212
1.002
1.00243
1.00205
1.00201
1.00186
1.00189
1.00157
1.00217
1.00201
1.00217
1.00195
1.00182
1.00203
1.00194
1.002
1.00203
1.00185
1.00198
1.00178
1.00192
1.00196
1.00179
1.00193
1.0019
1.0018
1.002
1.00196
1.0016
1.00204
1.00172
1.00202