# vtk DataFile Version 3.0
3D MAGNET output
ASCII
DATASET STRUCTURED_GRID
DIMENSIONS 126 126 2
POINTS 31752 double
0 0 0
38.8511 0 0
77.7023 0 0
116.553 0 0
155.405 0 0
194.256 0 0
233.107 0 0
271.958 0 0
310.809 0 0
349.66 0 0
388.511 0 0
427.362 0 0
466.214 0 0
505.065 0 0
543.916 0 0
582.767 0 0
621.618 0 0
660.469 0 0
699.32 0 0
738.172 0 0
777.023 0 0
815.874 0 0
854.725 0 0
893.576 0 0
932.427 0 0
971.278 0 0
1010.13 0 0
1048.98 0 0
1087.83 0 0
1126.68 0 0
1165.53 0 0
1204.39 0 0
1243.24 0 0
1282.09 0 0
1320.94 0 0
1359.79 0 0
1398.64 0 0
1437.49 0 0
1476.34 0 0
1515.19 0 0
1554.05 0 0
1592.9 0 0
1631.75 0 0
1670.6 0 0
1709.45 0 0
1748.3 0 0
1787.15 0 0
1826 0 0
1864.85 0 0
1903.71 0 0
1942.56 0 0
1981.41 0 0
2020.26 0 0
2059.11 0 0
2097.96 0 0
2136.81 0 0
2175.66 0 0
2214.51 0 0
2253.37 0 0
2292.22 0 0
2331.07 0 0
2369.92 0 0
2408.77 0 0
2447.62 0 0
2486.47 0 0
2525.32 0 0
2564.17 0 0
2603.03 0 0
2641.88 0 0
2680.73 0 0
2719.58 0 0
2758.43 0 0
2797.28 0 0
2836.13 0 0
2874.98 0 0
2913.83 0 0
2952.69 0 0
2991.54 0 0
3030.39 0 0
3069.24 0 0
3108.09 0 0
3146.94 0 0
3185.79 0 0
3224.64 0 0
3263.5 0 0
3302.35 0 0
3341.2 0 0
3380.05 0 0
3418.9 0 0
3457.75 0 0
3496.6 0 0
3535.45 0 0
3574.3 0 0
3613.16 0 0
3652.01 0 0
3690.86 0 0
3729.71 0 0
3768.56 0 0
3807.41 0 0
3846.26 0 0
3885.11 0 0
3923.96 0 0
3962.82 0 0
4001.67 0 0
4040.52 0 0
4079.37 0 0
4118.22 0 0
4157.07 0 0
4195.92 0 0
4234.77 0 0
4273.62 0 0
4312.48 0 0
4351.33 0 0
4390.18 0 0
4429.03 0 0
4467.88 0 0
4506.73 0 0
4545.58 0 0
4584.43 0 0
4623.28 0 0
4662.14 0 0
4700.99 0 0
4739.84 0 0
4778.69 0 0
4817.54 0 0
4856.39 0 0
0 38.8511 0
38.8511 38.8511 0
77.7023 38.8511 0
116.553 38.8511 0
155.405 38.8511 0
194.256 38.8511 0
233.107 38.8511 0
271.958 38.8511 0
310.809 38.8511 0
349.66 38.8511 0
388.511 38.8511 0
427.362 38.8511 0
466.214 38.8511 0
505.065 38.8511 0
543.916 38.8511 0
582.767 38.8511 0
621.618 38.8511 0
660.469 38.8511 0
699.32 38.8511 0
738.172 38.8511 0
777.023 38.8511 0
815.874 38.8511 0
854.725 38.8511 0
893.576 38.8511 0
932.427 38.8511 0
971.278 38.8511 0
1010.13 38.8511 0
1048.98 38.8511 0
1087.83 38.8511 0
1126.68 38.8511 0
1165.53 38.8511 0
1204.39 38.8511 0
1243.24 38.8511 0
1282.09 38.8511 0
1320.94 38.8511 0
1359.79 38.8511 0
1398.64 38.8511 0
1437.49 38.8511 0
1476.34 38.8511 0
1515.19 38.8511 0
1554.05 38.8511 0
1592.9 38.8511 0
1631.75 38.8511 0
1670.6 38.8511 0
1709.45 38.8511 0
1748.3 38.8511 0
1787.15 38.8511 0
1826 38.8511 0
1864.85 38.8511 0
1903.71 38.8511 0
1942.56 38.8511 0
1981.41 38.8511 0
2020.26 38.8511 0
2059.11 38.8511 0
2097.96 38.8511 0
2136.81 38.8511 0
2175.66 38.8511 0
2214.51 38.8511 0
2253.37 38.8511 0
2292.22 38.8511 0
2331.07 38.8511 0
2369.92 38.8511 0
2408.77 38.8511 0
2447.62 38.8511 0
2486.47 38.8511 0
2525.32 38.8511 0
2564.17 38.8511 0
2603.03 38.8511 0
2641.88 38.8511 0
2680.73 38.8511 0
2719.58 38.8511 0
2758.43 38.8511 0
2797.28 38.8511 0
2836.13 38.8511 0
2874.98 38.8511 0
2913.83 38.8511 0
2952.69 38.8511 0
2991.54 38.8511 0
3030.39 38.8511 0
3069.24 38.8511 0
3108.09 38.8511 0
3146.94 38.8511 0
3185.79 38.8511 0
3224.64 38.8511 0
3263.5 38.8511 0
3302.35 38.8511 0
3341.2 38.8511 0
3380.05 38.8511 0
3418.9 38.8511 0
3457.75 38.8511 0
3496.6 38.8511 0
3535.45 38.8511 0
3574.3 38.8511 0
3613.16 38.8511 0
3652.01 38.8511 0
3690.86 38.8511 0
3729.71 38.8511 0
3768.56 38.8511 0
3807.41 38.8511 0
3846.26 38.8511 0
3885.11 38.8511 0
3923.96 38.8511 0
3962.82 38.8511 0
4001.67 38.8511 0
4040.52 38.8511 0
4079.37 38.8511 0
4118.22 38.8511 0
4157.07 38.8511 0
4195.92 38.8511 0
4234.77 38.8511 0
4273.62 38.8511 0
4312.48 38.8511 0
4351.33 38.8511 0
4390.18 38.8511 0
4429.03 38.8511 0
4467.88 38.8511 0
4506.73 38.8511 0
4545.58 38.8511 0
4584.43 38.8511 0
4623.28 38.8511 0
4662.14 38.8511 0
4700.99 38.8511 0
4739.84 38.8511 0
4778.69 38.8511 0
4817.54 38.8511 0
4856.39 38.8511 0
0 77.7023 0
38.8511 77.7023 0
77.7023 77.7023 0
116.553 77.7023 0
155.405 77.7023 0
194.256 77.7023 0
233.107 77.7023 0
271.958 77.7023 0
310.809 77.7023 0
349.66 77.7023 0
388.511 77.7023 0
427.362 77.7023 0
466.214 77.7023 0
505.065 77.7023 0
543.916 77.7023 0
582.767 77.7023 0
621.618 77.7023 0
660.469 77.7023 0
699.32 77.7023 0
738.172 77.7023 0
777.023 77.7023 0
815.874 77.7023 0
854.725 77.7023 0
893.576 77.7023 0
932.427 77.7023 0
971.278 77.7023 0
1010.13 77.7023 0
1048.98 77.7023 0
1087.83 77.7023 0
1126.68 77.7023 0
1165.53 77.7023 0
1204.39 77.7023 0
1243.24 77.7023 0
1282.09 77.7023 0
1320.94 77.7023 0
1359.79 77.7023 0
1398.64 77.7023 0
1437.49 77.7023 0
1476.34 77.7023 0
1515.19 77.7023 0
1554.05 77.7023 0
1592.9 77.7023 0
1631.75 77.7023 0
1670.6 77.7023 0
1709.45 77.7023 0
1748.3 77.7023 0
1787.15 77.7023 0
1826 77.7023 0
1864.85 77.7023 0
1903.71 77.7023 0
1942.56 77.7023 0
1981.41 77.7023 0
2020.26 77.7023 0
2059.11 77.7023 0
2097.96 77.7023 0
2136.81 77.7023 0
2175.66 77.7023 0
2214.51 77.7023 0
2253.37 77.7023 0
2292.22 77.7023 0
2331.07 77.7023 0
2369.92 77.7023 0
2408.77 77.7023 0
2447.62 77.7023 0
2486.47 77.7023 0
2525.32 77.7023 0
2564.17 77.7023 0
2603.03 77.7023 0
2641.88 77.7023 0
2680.73 77.7023 0
2719.58 77.7023 0
2758.43 77.7023 0
2797.28 77.7023 0
2836.13 77.7023 0
2874.98 77.7023 0
2913.83 77.7023 0
2952.69 77.7023 0
2991.54 77.7023 0
3030.39 77.7023 0
3069.24 77.7023 0
3108.09 77.7023 0
3146.94 77.7023 0
3185.79 77.7023 0
3224.64 77.7023 0
3263.5 77.7023 0
3302.35 77.7023 0
3341.2 77.7023 0
3380.05 77.7023 0
3418.9 77.7023 0
3457.75 77.7023 0
3496.6 77.7023 0
3535.45 77.7023 0
3574.3 77.7023 0
3613.16 77.7023 0
3652.01 77.7023 0
3690.86 77.7023 0
3729.71 77.7023 0
3768.56 77.7023 0
3807.41 77.7023 0
3846.26 77.7023 0
3885.11 77.7023 0
3923.96 77.7023 0
3962.82 77.7023 0
4001.67 77.7023 0
4040.52 77.7023 0
4079.37 77.7023 0
4118.22 77.7023 0
4157.07 77.7023 0
4195.92 77.7023 0
4234.77 77.7023 0
4273.62 77.7023 0
4312.48 77.7023 0
4351.33 77.7023 0
4390.18 77.7023 0
4429.03 77.7023 0
4467.88 77.7023 0
4506.73 77.7023 0
4545.58 77.7023 0
4584.43 77.7023 0
4623.28 77.7023 0
4662.14 77.7023 0
4700.99 77.7023 0
4739.84 77.7023 0
4778.69 77.7023 0
4817.54 77.7023 0
4856.39 77.7023 0
0 116.553 0
38.8511 116.553 0
77.7023 116.553 0
116.553 116.553 0
155.405 116.553 0
194.256 116.553 0
233.107 116.553 0
271.958 116.553 0
310.809 116.553 0
349.66 116.553 0
388.511 116.553 0
427.362 116.553 0
466.214 116.553 0
505.065 116.553 0
543.916 116.553 0
582.767 116.553 0
621.618 116.553 0
660.469 116.553 0
699.32 116.553 0
738.172 116.553 0
777.023 116.553 0
815.874 116.553 0
854.725 116.553 0
893.576 116.553 0
932.427 116.553 0
971.278 116.553 0
1010.13 116.553 0
1048.98 116.553 0
1087.83 116.553 0
1126.68 116.553 0
1165.53 116.553 0
1204.39 116.553 0
1243.24 116.553 0
1282.09 116.553 0
1320.94 116.553 0
1359.79 116.553 0
1398.64 116.553 0
1437.49 116.553 0
1476.34 116.553 0
1515.19 116.553 0
1554.05 116.553 0
1592.9 116.553 0
1631.75 116.553 0
1670.6 116.553 0
1709.45 116.553 0
1748.3 116.553 0
1787.15 116.553 0
1826 116.553 0
1864.85 116.553 0
1903.71 116.553 0
1942.56 116.553 0
1981.41 116.553 0
2020.26 116.553 0
2059.11 116.553 0
2097.96 116.553 0
2136.81 116.553 0
2175.66 116.553 0
2214.51 116.553 0
2253.37 116.553 0
2292.22 116.553 0
2331.07 116.553 0
2369.92 116.553 0
2408.77 116.553 0
2447.62 116.553 0
2486.47 116.553 0
2525.32 116.553 0
2564.17 116.553 0
2603.03 116.553 0
2641.88 116.553 0
2680.73 116.553 0
2719.58 116.553 0
2758.43 116.553 0
2797.28 116.553 0
2836.13 116.553 0
2874.98 116.553 0
2913.83 116.553 0
2952.69 116.553 0
2991.54 116.553 0
3030.39 116.553 0
3069.24 116.553 0
3108.09 116.553 0
3146.94 116.553 0
3185.79 116.553 0
3224.64 116.553 0
3263.5 116.553 0
3302.35 116.553 0
3341.2 116.553 0
3380.05 116.553 0
3418.9 116.553 0
3457.75 116.553 0
3496.6 116.553 0
3535.45 116.553 0
3574.3 116.553 0
3613.16 116.553 0
3652.01 116.553 0
3690.86 116.553 0
3729.71 116.553 0
3768.56 116.553 0
3807.41 116.553 0
3846.26 116.553 0
3885.11 116.553 0
3923.96 116.553 0
3962.82 116.553 0
4001.67 116.553 0
4040.52 116.553 0
4079.37 116.553 0
4118.22 116.553 0
4157.07 116.553 0
4195.92 116.553 0
4234.77 116.553 0
4273.62 116.553 0
4312.48 116.553 0
4351.33 116.553 0
4390.18 116.553 0
4429.03 116.553 0
4467.88 116.553 0
4506.73 116.553 0
4545.58 116.553 0
4584.43 116.553 0
4623.28 116.553 0
4662.14 116.553 0
4700.99 116.553 0
4739.84 116.553 0
4778.69 116.553 0
4817.54 116.553 0
4856.39 116.553 0
0 155.405 0
38.8511 155.405 0
77.7023 155.405 0
116.553 155.405 0
155.405 155.405 0
194.256 155.405 0
233.107 155.405 0
271.958 155.405 0
310.809 155.405 0
349.66 155.405 0
388.511 155.405 0
427.362 155.405 0
466.214 155.405 0
505.065 155.405 0
543.916 155.405 0
582.767 155.405 0
621.618 155.405 0
660.469 155.405 0
699.32 155.405 0
738.172 155.405 0
777.023 155.405 0
815.874 155.405 0
854.725 155.405 0
893.576 155.405 0
932.427 155.405 0
971.278 155.405 0
1010.13 155.405 0
1048.98 155.405 0
1087.83 155.405 0
1126.68 155.405 0
1165.53 155.405 0
1204.39 155.405 0
1243.24 155.405 0
1282.09 155.405 0
1320.94 155.405 0
1359.79 155.405 0
1398.64 155.405 0
1437.49 155.405 0
1476.34 155.405 0
1515.19 155.405 0
1554.05 155.405 0
1592.9 155.405 0
1631.75 155.405 0
1670.6 155.405 0
1709.45 155.405 0
1748.3 155.405 0
1787.15 155.405 0
1826 155.405 0
1864.85 155.405 0
1903.71 155.405 0
1942.56 155.405 0
1981.41 155.405 0
2020.26 155.405 0
2059.11 155.405 0
2097.96 155.405 0
2136.81 155.405 0
2175.66 155.405 0
2214.51 155.405 0
2253.37 155.405 0
2292.22 155.405 0
2331.07 155.405 0
2369.92 155.405 0
2408.77 155.405 0
2447.62 155.405 0
2486.47 155.405 0
2525.32 155.405 0
2564.17 155.405 0
2603.03 155.405 0
2641.88 155.405 0
2680.73 155.405 0
2719.58 155.405 0
2758.43 155.405 0
2797.28 155.405 0
2836.13 155.405 0
2874.98 155.405 0
2913.83 155.405 0
2952.69 155.405 0
2991.54 155.405 0
3030.39 155.405 0
3069.24 155.405 0
3108.09 155.405 0
3146.94 155.405 0
3185.79 155.405 0
3224.64 155.405 0
3263.5 155.405 0
3302.35 155.405 0
3341.2 155.405 0
3380.05 155.405 0
3418.9 155.405 0
3457.75 155.405 0
3496.6 155.405 0
3535.45 155.405 0
[...]
POINT_DATA 31752
SCALARS Density double 
LOOKUP_TABLE default
0.999655
1.00052
0.999357
0.999566
0.999757
0.999777
1.00048
0.99951
1.00054
1.00042
0.998526
0.99965
1.00019
1
1.00036
1.00036
0.99959
0.999595
0.999753
1.00009
1.00106
1.00041
0.999371
1.0009
0.999906
0.999202
0.999796
1.00105
0.999423
1.00015
1.00113
0.99957
0.999722
1.00075
1.00052
1.00007
1.00119
1.00101
1.00087
1.00045
0.999892
1.00096
1.00076
1.00122
1.00165
1.00126
1.00167
1.00118
1.00128
1.00142
1.00115
1.00189
1.00162
1.00149
1.00216
1.00234
1.00246
1.00124
1.00159
1.00272
1.00196
1.00121
1.00225
1.00299
1.00196
1.00217
1.00158
1.00124
1.00212
1.00211
1.00146
1.00195
1.00133
1.00101
1.00175
1.00028
1.00235
1.00175
1.00078
1.00207
1.00174
1.00123
1.00064
1.00073
1.00194
1.00038
1.00021
1.00052
0.999959
0.999923
1.00096
1.00102
1.00015
1.00012
1.00024
1.00079
1.0007
0.999894
1.00008
1.00093
0.999922
1.00028
1.00058
1.00009
1.00063
0.9989
1.00036
1.00113
0.999817
0.999233
0.999638
0.99993
0.999753
0.999609
0.999188
1.001
1.00073
0.999303
0.998938
0.999542
1.00035
0.999703
0.999633
0.999263
1.00027
1.00041
1.00043
1.00054
1.00067
1.00049
0.99953
0.999446
1.00029
0.999761
0.999754
1.00028
1.00075
0.999578
0.998595
1.00075
0.998873
0.999634
1.00139
0.999355
0.99886
1.00028
1.00047
1.00025
1.00019
1.00091
0.999904
0.998619
1.00022
1.00136
1.00046
0.998559
0.999522
1.00091
1.00041
1.00021
1.00089
0.999646
1.00022
1.00015
1.0007
1.00083
0.999835
0.999862
1.00154
1.00159
1.00039
1.0005
1.00107
1.00145
1.00081
1.00158
1.00099
1.00033
1.00012
1.00088
1.00027
1.00061
1.00171
1.00146
1.0004
1.00128
1.00238
1.00184
1.00096
1.00217
1.00034
1.0012
1.00096
1.00065
1.00189
1.00183
1.00203
1.00142
1.00128
1.00214
1.00058
1.00024
1.00095
1.00154
1.00108
1.00077
1.00069
1.0006
1.00029
1.0005
1.00105
1.00097
0.999491
1.00001
1.00062
1.0004
1.00057
0.999989
0.999238
1.00026
1.00042
1.00035
0.999821
0.999275
1.0007
1.00074
0.998879
0.999777
1.00056
0.999099
0.999325
1.00027
1.00077
0.999989
0.999999
1.00042
1.00007
0.999223
0.999593
1.00076
0.999585
0.99936
1.00069
1.00081
0.99827
0.999997
1.00052
1.00006
1.00037
1.00033
1.00006
1.00059
1.00003
0.999838
0.999575
0.999988
1.00083
1.00074
0.999073
1.00007
0.999913
0.999632
1.00069
1.00005
0.999948
1.0006
1.0001
0.999975
0.999239
1.00027
1.00092
1.00041
0.999564
0.99958
1.00016
1.00026
1.00027
1.00133
0.999701
0.997425
0.999231
1.00147
1.00121
1.00067
1.00009
0.999449
0.999024
0.999739
1.0008
1.00072
1.00022
1.00021
1.00083
1.00005
0.999914
1.00042
1.00059
1.00014
1.00125
1.0012
0.999169
1.00116
1.00121
1.00016
0.99972
1.00024
1.0011
1.00133
1.00012
1.00032
1.00085
1.00086
1.00052
1.001
1.00063
1.00008
1.00081
1.00111
1.00125
1.00068
1.00043
1.00106
1.00034
1.00044
1.00073
1.00117
1.00059
1.00064
1.00113
1.00164
0.999179
0.999239
1.00028
1.00058
1.00066
1.00116
0.999722
1.00029
0.999265
1.00014
1.00023
1.00004
1.00086
0.999704
1.00086
1.00024
0.999256
1.00069
0.999986
0.999868
1.00026
0.998948
1.00046
1.00034
1.00019
1.00034
0.999046
1.00026
1.00039
0.999487
0.999061
1.00033
1.00014
0.999609
1.00034
0.999667
1.00012
1.00047
0.999481
1.00065
1.00038
1.00079
1.00099
1.00055
0.999265
0.999363
1.00048
1.00072
0.99882
0.999456
0.99911
0.999042
0.999864
0.99962
0.999955
1.00083
1.00014
0.999218
0.999861
1.00109
1.00081
0.999028
0.999545
1.0001
0.999194
1.0009
1.00079
0.999392
0.999826
1.00009
0.998752
1.00033
1.00088
1.00012
1.00007
1.00019
1.00015
1.00063
1.00002
0.999847
0.999637
1.00067
1.0002
1.00009
0.99999
1.00017
1.00137
0.999869
0.998485
1.00038
1.00071
1.00057
1.00014
1.00002
0.999239
1.0007
1.00034
1.00034
1.00141
1.00016
1.00103
1.00166
1.00095
1.00057
1.00051
1.00059
1.00161
1.00134
0.999938
1.00056
1.00087
0.999013
1.0006
1.00179
1.00113
1.00011
0.999524
0.999395
1.00066
1.00182
1.00069
0.999624
1.0003
1.00111
1.00141
1.00018
1.00043
1.0013
1.00014
1.0003
1.00102
1.0006
1.00108
1.00032
0.99972
1.00079
0.999854
1.0008
1.00093
0.999989
1.00044
1.00026
1.00029
1.00059
1.00002
1.00071
0.999591
1.00007
1.00037
1.00041
1.00049
1.00042
0.999908
0.999698
0.999744
1.00069
1.00034
1.00056
1.00023
0.999926
0.999557
0.99999
0.999913
1.00048
0.999679
1.00056
1.00107
1.00027
0.999428
1.00043
1.00002
0.999291
0.999892
1.00055
1.00006
1.00068
1.00024
0.999332
1.00054
0.999899
0.999944
1.00022
1.0005
0.999725
1.00058
1.00065
0.999325
0.999459
1.0001
1.00028
1.00078
1.00028
1.00027
0.999099
1.00008
0.999283
0.999189
0.999183
1.00059
1.00064
1.00049
0.999731
1.00057
1.00047
0.999878
0.999252
0.999684
1.00122
0.999665
0.999815
1.00022
0.999884
1.0012
1.0003
1.00037
1.00013
1.00007
1.00045
1.00066
1.00068
0.999418
1.00094
1.0009
0.999352
1.00038
1.0003
1.00143
1.00107
1.00121
1.00058
1.00064
1.00053
0.999965
1.00033
1.00103
1.00077
1.00141
1.00056
1.00043
1.00079
1.00054
1.00115
1.00144
1.00003
1.00064
1.001
1.00165
1.0005
1.00017
1.00142
1.0004
0.999838
1.00134
1.00004
0.999664
1.0011
1.00117
1.00017
1.00093
1.00052
1.00001
1.00002
1.00091
1.00054
1.00034
1.0003
0.999893
1.001
1.00031
0.999428
0.999838
0.99963
0.999719
1.00045
0.999864
1.00032
1.00006
1.00029
1.00049
1.0001
1.00102
1.00028
0.998982
0.999302
0.99978
1.00085
1.00029
0.999943
1.00017
0.999116
1.00055
1.00083
0.999166
0.998809
1.00006
1.0002
1.00092
0.998947
0.999532
1.00009
1.00065
1.00091
1.00007
1.00067
1.00116
1.00089
0.99925
0.999583
1.00043
1.00092
0.999749
0.999839
0.999741
0.999814
1.00136
1.00045
0.999356
1.00036
0.999978
0.999614
0.999953
1.00052
0.999986
0.999602
1.00026
1.00102
0.999838
0.999105
1.00071
1.0005
1.00099
1.00027
0.9997
1.00067
1.0001
1.00116
1.00015
1.00051
1.00025
1.00099
1.00112
1.00049
1.00126
1.0004
1.00034
1.0012
1.00114
1.00081
1.00107
1.0005
1.00076
1.00109
1.00071
1.00031
1.00125
1.00108
1.00073
1.00009
1.00083
1.00006
1.00136
1.00118
1.00149
1.00114
1.00084
1.00112
1.00137
1.0014
1.00099
1.00177
1.00089
0.999153
1.0008
1.00123
1.00043
1.00042
1.00122
1.00055
1.00054
1.00058
0.999886
1.00004
1.00116
1.00076
1.00013
1.0002
1.00136
0.999804
1.00038
0.999726
1.00077
0.99985
1.00004
1.00042
1.00084
1.00044
1.00052
0.998085
1.00022
1.00034
1.0004
1.00021
0.999335
0.999856
0.999835
1.00007
1.001
1.0004
1.00046
1.00021
0.999449
0.999642
1.00063
0.999435
1.00029
0.998638
1.00001
1.00018
0.999719
0.999678
1.00014
1.00066
1.00044
1.00037
0.999891
0.999173
0.999807
0.999606
1.00037
1.00063
1.00017
1.00015
0.999099
0.9987
0.999888
1.00027
0.999784
0.999397
1.00035
1.00046
1.00009
0.999866
0.999703
0.998975
1.00007
1.00008
0.999688
0.999542
1.00051
1.00098
0.999585
1.00028
0.999939
0.998944
1.00059
1.00113
0.999312
1.0002
1.00117
0.999641
1.0004
1.00076
1.00021
1.00116
1.00022
1.00024
1.00104
1.00114
0.999268
1.00069
1.00098
0.999665
1.00147
1.00056
1.00032
1.00141
1.00123
1.00119
1.00025
1.00073
1.00069
1.0007
1.00141
1.00119
1.00074
1.00133
1.00177
1.00093
0.999918
1.00083
1.00031
1.00133
1.00126
1.00078
1.0011
1.00041
1.00034
1.00128
1.00026
1.00042
1.00122
0.999836
1.00092
1.00134
1.00129
0.999981
1.00093
1.00054
1.00074
1.00055
1.00065
1.00116
1.00083
1.00036
1.00042
1.00082
0.999662
1.00038
1.00075
1.00043
1.0008
1.00058
1.00031
1.00019
1.00034
1.00096
1.00023
0.999943
0.999643
1.00069
0.999879
0.999127
1.00027
1.00093
0.999705
1.00031
1.00057
0.998887
1.00008
1.00029
1.00039
0.998742
1.00011
0.999832
0.998998
1.00059
1.00004
1.00005
0.999598
1.00021
1.00031
1.00078
0.999664
0.998222
1.00035
1.00055
1.00014
0.999664
1.00053
0.999325
0.999448
0.999608
1.00029
1.00033
0.999791
0.998753
0.998871
1.00069
1.00093
0.999569
1.00048
1.00034
1.00069
0.999918
0.999738
0.999902
0.999852
1.00061
1.00016
0.998962
0.999917
1.00101
1.00002
0.999715
1.00062
1.00044
1.00092
0.998828
1.00026
1.00121
1.00061
1.0004
1.00023
1.00125
1.00069
1.00015
1.00053
1.00128
1.00117
1.00041
1.00081
1.00054
1.0008
1.00125
1.00056
1.0014
1.00022
1.00043
1.00146
1.00146
1.00059
1.00069
1.00049
1.00118
1.00034
1.00059
1.00145
1.0003
1.00035
1.00093
1.00154
1.00113
1.00057
1.00089
1.00093
1.00077
1.00116
1.00156
1.00083
1.00126
1.00121
1.00014
1.0013
1.00123
1.00049
1.00156
1.00076
1.00005
1.00029
1.00123
0.999728
1.0003
1.00053
1.0013
1.00074
1.00062
1.00015
0.999645
1.00063
1.00098
0.999718
1.0007
1.00108
0.99992
0.999419
1.00053
1.00101
0.999928
0.998886
0.999246
0.999624
1.00068
1.00018
1.0002
0.999294
1.00008
0.998866
1.00166
1.00001
0.999227
1.00059
0.999468
0.99924
0.99952
0.999391
0.999605
1.00009
1.00078
1.00013
0.999172
0.998718
0.999451
1.00024
1.00051
1.00102
1.0009
0.999449
1.00087
0.999585
0.999349
0.999246
0.999682
1.00058
1.0007
1.00084
1.00107
0.999292
1.00117
1.00064
1.00023
0.999998
0.999938
1.00073
1.00101
1.00018
1.00068
1.00079
0.99958
1.00014
0.999647
0.999876
1.00065
1.0004
1.0006
1.00125
1.0002
1.00071
1.00094
1.00103
1.00113
1.00061
1.00036
1.00116
1.00107
1.00132
1.00093
1.00072
1.00116
1.00135
1.00022
1.00067
1.00092
1.0003
1.00128
1.00126
1.00071
1.00094
1.00118
1.00089
1.00126
1.00149
1.00087
1.00102
1.00129
1.00116
1.00104
1.00015
1.00095
1.00089
1.00121
1.00149
1.00097
1.0004
1.00142
1.00063
1.00082
1.00104
1.00094
1.00138
1.00115
1.00057
1.00056
1.00119
1.00073
1.00017
0.999739
1.00079
1.00097
1.00042
1.00102
1.0004
0.99985
1.00052
1.00021
1.0003
1.00068
0.999826
0.999368
1.00019
0.999814
1.00071
0.999816
1.0006
0.999509
0.999916
1.00025
1.0001
1.00081
1.00074
0.99968
0.999291
1.00073
1.00078
1.00068
0.999852
1.00065
1.00005
0.999488
0.998469
1.00016
1.00066
0.999409
1.00068
0.999632
1.00061
1.00087
0.999912
0.999913
0.999583
1.0001
0.999015
1.00013
1.00101
1.0008
1.00019
0.998991
1.00041
1.00026
0.999802
1.00047
0.999901
0.999623
1.00045
0.999167
1.00048
1.00036
0.999066
1.0002
1.00132
1.0004
0.999658
1.00099
1.00092
1.00047
1.00003
1.00062
1.00055
1.00094
1.00064
1.00063
1.00009
1.00062
1.0008
1.00075
1.00102
1.00052
1.00059
1.00068
1.00056
1.00108
1.00036
1.0004
1.00101
1.0014
1.00123
1.00126
1.0009
1.00052
1.00158
1.00118
1.00164
1.00131
1.00069
1.00171
1.00074
1.00061
1.00083
1.00147
1.00149
1.00156
1.00128
1.00135
1.00051
1.0015
1.00131
1.0012
1.00088
1.00135
1.00091
1.00054
1.00103
1.00139
1.00072
1.00118
1.00069
1.00071
1.00084
1.00024
1.00133
1.00161
1.0007
1.0011
1.00142
1.00094
0.999733
0.999713
1.00052
1.00079
0.999366
1.00037
1.00083
1.00109
1.00007
0.999829
1.00088
1.00036
0.999724
0.999749
1.00013
1.00083
1.00099
1.00031
0.999363
0.998661
1.00089
1.00048
1.00045
1.00002
1.00057
0.998979
1.00085
1.00099
0.999504
1.00008
1.00093
0.999937
0.999813
1.00002
1.0002
1.00031
0.999115
1.00002
1.00063
1.00027
0.999641
0.999887
0.999988
0.999779
1.00056
1.00021
1.00009
1.00044
1.00002
1.00089
1.00032
0.999897
0.998815
0.998866
1.00132
1.0001
0.999407
0.999556
1.00067
1.00083
0.999715
0.999138
1.00033
1.00123
0.999464
1.00044
1.00064
1.00155
1.00116
1.00006
1.00074
1.00064
0.99885
1.0006
1.00134
1.00073
1.00148
1.00116
1.00069
1.00014
1.00074
1.00176
1.00092
1.00118
1.0011
1.00078
1.00117
1.00155
1.00147
1.0014
1.00071
1.00074
1.00101
1.00081
1.00083
1.00124
1.00157
1.00109
1.00148
1.00173
1.00084
1.0002
1.00151
1.00126
1.00162
1.00104
1.00111
1.00123
1.00168
1.00101
1.00079
1.00149
1.00192
1.00149
1.00044
1.00103
1.00078
1.00096
1.00118
1.00146
1.00025
1.00051
1.00091
1.00098
1.00118
1.00102
1.00023
0.999109
1.00116
1.00114
1.00103
1.00006
1.00095
1.00101
1.00027
1.00078
1.00003
1.00004
0.999525
1.00124
1.00043
1.00025
1.00012
1.00078
1.00001
0.999358
0.999515
0.99995
1.00025
1.0003
1.00029
0.99874
0.999748
0.999208
1.00001
1.00118
1.00114
1.00072
1.00003
1.00024
0.999261
1.00097
0.999085
0.999724
0.99951
0.99995
1.00083
0.999652
0.99951
1
0.998916
0.999955
1.00037
1.00071
0.999952
1.00077
1.00046
1.00067
0.99956
0.999196
1.00017
1.00096
1.00043
1.00066
0.999623
1.00067
1.00007
0.999732
1.001
1.00051
1.00059
0.999772
1.00008
1.00073
1.00112
1.00002
1.00065
1.00079
1.00128
1.00072
1.00135
1.00076
1.00151
1.00122
1.00062
1.00071
1.00115
1.00087
1.00132
1.00149
1.00107
1.00123
1.00111
1.00057
1.00064
1.00144
1.0008
1.00109
1.00079
1.00107
1.00181
1.00138
1.00131
1.00089
1.00173
1.00098
1.00112
1.00114
1.00081
1.00115
1.00161
1.00065
1.00109
1.00086
1.00107
1.00119
1.0017
1.00112
1.00105
1.00112
1.00087
1.00084
1.00146
1.00104
1.00049
1.00131
1.00053
1.0004
1.00016
1.0005
1.00089
1.00099
1.00119
1.00073
1.00111
1.00082
0.999825
1.00037
1.00048
1.00041
1.00036
1.00071
0.999991
0.999014
1.00053
1.00091
1.00038
0.999938
1.00008
0.999995
1.00097
1.00027
0.999245
1.00114
1.00016
0.999738
0.999867
0.999511
0.999208
1.00025
0.999478
0.999238
1.00064
1.00075
1.00045
0.998675
0.999951
1.00026
1.00014
0.999798
1.00078
1.00093
0.997938
0.999628
1.00087
0.999158
1.00075
0.999384
1.00064
0.999847
0.99998
0.999444
1.00114
0.999144
0.99985
1.00008
0.999228
1.00022
1.00057
1.00027
0.999904
1.00031
1.00083
1.00058
1.00002
1.00006
1.00112
1.00103
1.00121
1.00038
0.999596
1.00018
1.00166
1.00107
1.00018
1.00133
1.00144
1.00139
1.00019
1.00089
1.00121
1.00119
1.00128
1.00055
1.00068
1.0012
1.00088
1.00107
1.00091
1.0012
1.00146
1.001
1.00115
1.00137
1.0009
1.00143
1.00138
1.00121
1.00135
1.00082
1.00099
1.00141
1.00127
1.00111
1.00087
1.00108
1.0013
1.00151
1.00087
1.00096
1.00106
1.00125
1.00122
1.0013
1.00074
1.00099
1.00031
1.00126
1.00159
1.00115
1.00089
1.00111
1.00148
1.00055
1.00077
1.00152
1.00092
1.00093
1.00098
1.00132
1.00056
1.00052
1.00096
1.00048
0.999342
1.00075
1.00078
0.999947
1.0008
1.00087
1.00069
0.99964
0.999571
0.999648
0.999836
0.999692
1.00004
1.00009
1.00015
0.99971
1.00001
1.00008
0.99911
1.00091
1.00097
1.00086
0.999613
0.998234
1.00131
1.00083
0.999806
0.997836
1.00005
1.00066
1.00066
1.00011
1.00045
1.00007
0.999356
1.0005
1.00049
1.00007
1.00084
1.00073
0.999595
0.998579
0.999837
0.999362
1.0003
0.999206
0.999397
1.00124
1.00012
0.999466
1.00096
0.999053
1.00021
1.00071
0.999552
1.001
1.00058
1.0006
1.00099
1.00081
1.00077
1.00128
1.00009
1.00092
1.00066
1.00109
1.00098
1.00055
1.00027
1.00139
1.00074
1.0013
1.00066
1.0014
1.00151
1.00058
1.00093
1.00102
1.00155
1.00142
1.00138
1.00083
1.00077
1.00134
1.00127
1.0012
1.00156
1.00144
1.00108
1.00106
1.00062
1.00105
1.00087
1.00137
1.00109
1.0007
1.00114
1.00155
1.00034
1.0012
1.00167
1.0007
1.00133
1.00127
1.00066
1.00135
1.00077
1.00082
1.00104
1.00161
1.00166
1.00164
1.00074
1.0003
1.00171
1.00122
1.00095
1.00112
1.00127
1.00124
1.00097
1.00123
1.00081
1.00056
1.00109
1.00126
1.00051
0.999771
1.00088
1.00077
1.00042
1.00022
1.00051
1.00069
1.00025
1.00025
0.99995
1.00036
1.00077
1.00057
1.00026
0.998515
1.00054
1.00042
1.00008
0.999983
0.999827
0.999781
1.00069
1.00047
1.00041
0.999212
0.999086
1.0011
1.00068
1.00013
1.00002
1.00006
1.00026
0.998875
1.00039
1.00101
0.999909
0.99914
0.998414
1.00086
1.00064
1.00043
0.999187
1.00051
0.998719
1.00037
1.00071
1.00001
1.00051
1.00041
1.00052
1.00063
0.99945
1.00098
1.00096
0.99981
1.00017
1.00128
1.00116
1.00038
1.00108
1.00106
1.00096
1.0016
1.00058
0.999993
1.00158
1.00126
1.0013
1.00051
1.00123
1.00148
1.00081
1.00121
1.00118
1.00158
1.00093
1.00147
1.0016
1.00076
1.00116
1.00116
1.00143
1.00113
1.00106
1.00124
1.00142
1.00125
1.001
1.00105
1.00111
1.00124
1.00116
1.00126
1.00089
1.00108
1.00116
1.00117
1.00138
1.00096
1.00113
1.00093
1.00134
1.00126
1.00152
1.0011
1.00088
1.00095
1.0012
1.00056
1.0012
1.00132
1.00136
1.00128
1.00119
1.00123
1.00106
1.00124
1.00109
1.00119
1.00065
1.00049
1.0009
1.00063
1.00079
1.00134
1.00067
1.00079
1.00037
1.00031
1.00052
1.00137
1.00048
1.00015
1.00077
1.00026
1.00051
1.00086
1.00012
1.00084
1.00022
0.99966
1.00062
1.00099
0.998622
0.998804
1.0004
1.00072
1.00049
0.999561
0.99848
1.0001
1.00006
0.99994
1.0008
1.00039
1.00032
1.00015
0.999418
0.999108
1.00058
1.00068
0.999916
1.00013
1.00012
1.00027
0.999922
1.00108
0.999372
1.00041
1.00094
1.00057
1.00048
1.00009
1.00064
1.00136
0.999149
1.00016
1.00132
1.00099
0.99983
1.00048
1.00106
0.998898
1.00035
1.00165
1.00068
1.00048
1.00112
1.00121
1.00045
1.00112
1.00089
1.00094
1.00177
1.00119
1.00119
1.00111
1.00154
1.00141
1.00131
1.00076
1.00139
1.0016
1.00116
1.00097
1.00104
1.00126
1.00099
1.00075
1.00142
1.00132
1.00075
1.00113
1.00159
1.00111
1.00083
1.00123
1.00125
1.00121
1.00136
1.00134
1.00128
1.00086
1.00148
1.00144
1.00095
1.00132
1.001
1.00104
1.00114
1.00126
1.00164
1.00064
1.00154
1.00098
1.001
1.00106
1.00092
1.00106
1.00159
1.0009
1.00158
1.00112
1.00056
1.00082
1.00171
1.00097
1.00063
1.00096
1.00109
1.00043
1.00068
1.00129
1.00026
1.00081
1.00159
1.00071
1.00005
1.00075
1.00051
1.00006
0.999741
1.00039
0.998969
1.00003
0.999818
1.00112
0.999358
1.00011
1.00021
0.999532
1.00081
1.00014
0.999493
0.999633
0.999523
1.0016
1.00099
0.999182
0.998547
1.00039
1.00028
0.999765
1.00019
1.00025
1.00053
0.999588
1.00059
0.999897
1.00002
1.00044
1.00007
0.999555
1.00004
0.999402
1.00109
1.00064
0.99944
1.00048
1.00012
1.00043
1.00057
1.00054
1.00093
1.00002
1.00115
1.00031
0.999795
1.00045
1.00004
1.00005
1.00144
1.0014
1.00069
1.00088
1.00119
1.0009
1.00119
1.00164
1
1.00091
1.00159
1.00094
1.00138
1.00069
1.00149
1.00074
1.00147
1.00087
1.001
1.00137
1.00087
1.00137
1.00141
1.00124
1.00076
1.00118
1.00097
1.00108
1.0009
1.00114
1.00108
1.00061
1.00109
1.001
1.00096
1.00086
1.00115
1.00123
1.00088
1.0013
1.0012
1.00139
1.00095
1.00102
1.0013
1.00103
1.00139
1.00133
1.00106
1.00091
1.00145
1.00114
1.00066
1.00104
1.00123
1.00084
1.00131
1.00134
1.00143
1.00097
1.00114
1.00063
1.00063
1.00121
1.00157
1.00079
1.00076
1.00099
1.00138
1.00081
1.00041
0.999671
1.00062
1.00044
1.0007
1.00099
1.00148
0.999563
0.998906
1.00094
1.00046
1.00007
1.00098
0.999361
1.00043
1.00058
1.00067
1.00026
0.99892
1.00084
0.999912
1.00024
1.00065
0.999447
0.998578
1.00053
1.00046
1.0001
1.00073
0.999643
0.999098
1.00006
1.00022
1.0003
1.00014
0.999634
1.00037
0.999108
0.999789
0.999942
1.00058
1.00087
0.999615
1.00061
1.00056
0.999594
1.00047
1.00056
1.00068
0.999837
1.00118
1.00078
1.00043
1.00131
1.00064
1.00041
1.00146
1.00144
1.00075
1.00064
1.00078
1.00051
1.00147
1.00109
1.00069
1.00134
1.0012
1.00116
1.00118
1.00109
1.00101
1.00123
1.00089
1.00121
1.00096
1.00143
1.00131
1.00098
1.00134
1.00133
1.0007
1.00089
1.00109
1.00098
1.00116
1.00084
1.00087
1.0012
1.00111
1.00088
1.00119
1.00107
1.00088
1.00087
1.001
1.00116
1.00119
1.00089
1.00112
1.00124
1.0014
1.00121
1.0008
1.001
1.00098
1.00093
1.00114
1.00159
1.00164
1.00147
1.00009
1.00113
1.00127
1.00103
1.00104
1.00142
1.0009
1.00057
1.0014
1.00153
1.00106
1.00148
1.00118
1.00061
1.00058
1.00082
1.00022
1.00074
1.00135
1.0004
1.00039
1.00009
1.00088
1.00109
1.00062
1.00038
1.00054
0.999254
1.00059
1.00092
1.0004
1.00028
0.999286
0.999415
0.998702
1.00047
1.00053
0.99889
1.00008
0.999553
1.00022
1.00017
0.99998
1.00049
1.00018
0.999877
0.999991
1.00058
1.0001
1.00102
0.99997
0.999316
1.00044
1.00085
1.00033
1.00026
1.00069
0.999804
0.999315
1.00022
1.00084
1.00016
1.00029
1.0006
1.00081
0.999942
1.0003
1.0011
1.00078
1.00072
1.00141
1.00101
1.00048
1.00075
1.00108
1.00133
1.00122
1.0011
1.00148
1.00098
1.00166
1.00156
1.0011
1.00093
1.00119
1.00153
1.00065
1.00119
1.00127
1.00122
1.00112
1.00091
1.00119
1.00085
1.00091
1.00106
1.00118
1.00101
1.00115
1.00079
1.00122
1.00113
1.00108
1.00122
1.00109
1.00098
1.0011
1.00117
1.00097
1.00102
1.00095
1.00091
1.00102
1.00105
1.00103
1.00103
1.00103
1.00119
1.00111
1.00116
1.00137
1.00124
1.00113
1.00111
1.00109
1.0013
1.00109
1.0014
1.00107
1.00134
1.00109
1.00094
1.00142
1.00113
1.00137
1.00092
1.00056
1.00126
1.00136
1.00142
1.00054
1.00065
1.00072
1.00089
1.00074
1.00126
1.00129
1.00059
0.999143
0.999374
1.00047
1.00006
0.999729
1.00064
1.00042
1.00076
1.00047
1.00023
1.00084
0.999361
0.999852
1.0004
0.999171
0.998898
1.00066
1.00082
1.00017
0.999791
1.00012
0.999642
0.999968
1.00002
0.999697
0.999449
1.00018
1.00113
0.999662
0.998891
1.00077
1.00096
1.00023
1.00065
1.00005
0.998663
1.00043
1.00026
1.00049
1.00061
1.00002
1.00088
1.00105
1.00041
1.00052
1.00131
1.00089
1.00076
1.00154
1.00149
1.0008
1.00072
1.00112
1.00121
1.00116
1.00113
1.00123
1.00137
1.00132
1.00122
1.0011
1.00106
1.00099
1.00142
1.00107
1.00095
1.00133
1.00106
1.001
1.00088
1.00092
1.00066
1.00115
1.00104
1.00119
1.00101
1.00089
1.00107
1.00101
1.00109
1.00109
1.00093
1.00106
1.00089
1.00099
1.00105