# vtk DataFile Version 3.0
3D MAGNET output
ASCII
DATASET STRUCTURED_GRID
DIMENSIONS 126 126 2
POINTS 31752 double
0 0 0
38.8511 0 0
77.7023 0 0
116.553 0 0
155.405 0 0
194.256 0 0
233.107 0 0
271.958 0 0
310.809 0 0
349.66 0 0
388.511 0 0
427.362 0 0
466.214 0 0
505.065 0 0
543.916 0 0
582.767 0 0
621.618 0 0
660.469 0 0
699.32 0 0
738.172 0 0
777.023 0 0
815.874 0 0
854.725 0 0
893.576 0 0
932.427 0 0
971.278 0 0
1010.13 0 0
1048.98 0 0
1087.83 0 0
1126.68 0 0
1165.53 0 0
1204.39 0 0
1243.24 0 0
1282.09 0 0
1320.94 0 0
1359.79 0 0
1398.64 0 0
1437.49 0 0
1476.34 0 0
1515.19 0 0
1554.05 0 0
1592.9 0 0
1631.75 0 0
1670.6 0 0
1709.45 0 0
1748.3 0 0
1787.15 0 0
1826 0 0
1864.85 0 0
1903.71 0 0
1942.56 0 0
1981.41 0 0
2020.26 0 0
2059.11 0 0
2097.96 0 0
2136.81 0 0
2175.66 0 0
2214.51 0 0
2253.37 0 0
2292.22 0 0
2331.07 0 0
2369.92 0 0
2408.77 0 0
2447.62 0 0
2486.47 0 0
2525.32 0 0
2564.17 0 0
2603.03 0 0
2641.88 0 0
2680.73 0 0
2719.58 0 0
2758.43 0 0
2797.28 0 0
2836.13 0 0
2874.98 0 0
2913.83 0 0
2952.69 0 0
2991.54 0 0
3030.39 0 0
3069.24 0 0
3108.09 0 0
3146.94 0 0
3185.79 0 0
3224.64 0 0
3263.5 0 0
3302.35 0 0
3341.2 0 0
3380.05 0 0
3418.9 0 0
3457.75 0 0
3496.6 0 0
3535.45 0 0
3574.3 0 0
3613.16 0 0
3652.01 0 0
3690.86 0 0
3729.71 0 0
3768.56 0 0
3807.41 0 0
3846.26 0 0
3885.11 0 0
3923.96 0 0
3962.82 0 0
4001.67 0 0
4040.52 0 0
4079.37 0 0
4118.22 0 0
4157.07 0 0
4195.92 0 0
4234.77 0 0
4273.62 0 0
4312.48 0 0
4351.33 0 0
4390.18 0 0
4429.03 0 0
4467.88 0 0
4506.73 0 0
4545.58 0 0
4584.43 0 0
4623.28 0 0
4662.14 0 0
4700.99 0 0
4739.84 0 0
4778.69 0 0
4817.54 0 0
4856.39 0 0
0 38.8511 0
38.8511 38.8511 0
77.7023 38.8511 0
116.553 38.8511 0
155.405 38.8511 0
194.256 38.8511 0
233.107 38.8511 0
271.958 38.8511 0
310.809 38.8511 0
349.66 38.8511 0
388.511 38.8511 0
427.362 38.8511 0
466.214 38.8511 0
505.065 38.8511 0
543.916 38.8511 0
582.767 38.8511 0
621.618 38.8511 0
660.469 38.8511 0
699.32 38.8511 0
738.172 38.8511 0
777.023 38.8511 0
815.874 38.8511 0
854.725 38.8511 0
893.576 38.8511 0
932.427 38.8511 0
971.278 38.8511 0
1010.13 38.8511 0
1048.98 38.8511 0
1087.83 38.8511 0
1126.68 38.8511 0
1165.53 38.8511 0
1204.39 38.8511 0
1243.24 38.8511 0
1282.09 38.8511 0
1320.94 38.8511 0
1359.79 38.8511 0
1398.64 38.8511 0
1437.49 38.8511 0
1476.34 38.8511 0
1515.19 38.8511 0
1554.05 38.8511 0
1592.9 38.8511 0
1631.75 38.8511 0
1670.6 38.8511 0
1709.45 38.8511 0
1748.3 38.8511 0
1787.15 38.8511 0
1826 38.8511 0
1864.85 38.8511 0
1903.71 38.8511 0
1942.56 38.8511 0
1981.41 38.8511 0
2020.26 38.8511 0
2059.11 38.8511 0
2097.96 38.8511 0
2136.81 38.8511 0
2175.66 38.8511 0
2214.51 38.8511 0
2253.37 38.8511 0
2292.22 38.8511 0
2331.07 38.8511 0
2369.92 38.8511 0
2408.77 38.8511 0
2447.62 38.8511 0
2486.47 38.8511 0
2525.32 38.8511 0
2564.17 38.8511 0
2603.03 38.8511 0
2641.88 38.8511 0
2680.73 38.8511 0
2719.58 38.8511 0
2758.43 38.8511 0
2797.28 38.8511 0
2836.13 38.8511 0
2874.98 38.8511 0
2913.83 38.8511 0
2952.69 38.8511 0
2991.54 38.8511 0
3030.39 38.8511 0
3069.24 38.8511 0
3108.09 38.8511 0
3146.94 38.8511 0
3185.79 38.8511 0
3224.64 38.8511 0
3263.5 38.8511 0
3302.35 38.8511 0
3341.2 38.8511 0
3380.05 38.8511 0
3418.9 38.8511 0
3457.75 38.8511 0
3496.6 38.8511 0
3535.45 38.8511 0
3574.3 38.8511 0
3613.16 38.8511 0
3652.01 38.8511 0
3690.86 38.8511 0
3729.71 38.8511 0
3768.56 38.8511 0
3807.41 38.8511 0
3846.26 38.8511 0
3885.11 38.8511 0
3923.96 38.8511 0
3962.82 38.8511 0
4001.67 38.8511 0
4040.52 38.8511 0
4079.37 38.8511 0
4118.22 38.8511 0
4157.07 38.8511 0
4195.92 38.8511 0
4234.77 38.8511 0
4273.62 38.8511 0
4312.48 38.8511 0
4351.33 38.8511 0
4390.18 38.8511 0
4429.03 38.8511 0
4467.88 38.8511 0
4506.73 38.8511 0
4545.58 38.8511 0
4584.43 38.8511 0
4623.28 38.8511 0
4662.14 38.8511 0
4700.99 38.8511 0
4739.84 38.8511 0
4778.69 38.8511 0
4817.54 38.8511 0
4856.39 38.8511 0
0 77.7023 0
38.8511 77.7023 0
77.7023 77.7023 0
116.553 77.7023 0
155.405 77.7023 0
194.256 77.7023 0
233.107 77.7023 0
271.958 77.7023 0
310.809 77.7023 0
349.66 77.7023 0
388.511 77.7023 0
427.362 77.7023 0
466.214 77.7023 0
505.065 77.7023 0
543.916 77.7023 0
582.767 77.7023 0
621.618 77.7023 0
660.469 77.7023 0
699.32 77.7023 0
738.172 77.7023 0
777.023 77.7023 0
815.874 77.7023 0
854.725 77.7023 0
893.576 77.7023 0
932.427 77.7023 0
971.278 77.7023 0
1010.13 77.7023 0
1048.98 77.7023 0
1087.83 77.7023 0
1126.68 77.7023 0
1165.53 77.7023 0
1204.39 77.7023 0
1243.24 77.7023 0
1282.09 77.7023 0
1320.94 77.7023 0
1359.79 77.7023 0
1398.64 77.7023 0
1437.49 77.7023 0
1476.34 77.7023 0
1515.19 77.7023 0
1554.05 77.7023 0
1592.9 77.7023 0
1631.75 77.7023 0
1670.6 77.7023 0
1709.45 77.7023 0
1748.3 77.7023 0
1787.15 77.7023 0
1826 77.7023 0
1864.85 77.7023 0
1903.71 77.7023 0
1942.56 77.7023 0
1981.41 77.7023 0
2020.26 77.7023 0
2059.11 77.7023 0
2097.96 77.7023 0
2136.81 77.7023 0
2175.66 77.7023 0
2214.51 77.7023 0
2253.37 77.7023 0
2292.22 77.7023 0
2331.07 77.7023 0
2369.92 77.7023 0
2408.77 77.7023 0
2447.62 77.7023 0
2486.47 77.7023 0
2525.32 77.7023 0
2564.17 77.7023 0
2603.03 77.7023 0
2641.88 77.7023 0
2680.73 77.7023 0
2719.58 77.7023 0
2758.43 77.7023 0
2797.28 77.7023 0
2836.13 77.7023 0
2874.98 77.7023 0
2913.83 77.7023 0
2952.69 77.7023 0
2991.54 77.7023 0
3030.39 77.7023 0
3069.24 77.7023 0
3108.09 77.7023 0
3146.94 77.7023 0
3185.79 77.7023 0
3224.64 77.7023 0
3263.5 77.7023 0
3302.35 77.7023 0
3341.2 77.7023 0
3380.05 77.7023 0
3418.9 77.7023 0
3457.75 77.7023 0
3496.6 77.7023 0
3535.45 77.7023 0
3574.3 77.7023 0
3613.16 77.7023 0
3652.01 77.7023 0
3690.86 77.7023 0
3729.71 77.7023 0
3768.56 77.7023 0
3807.41 77.7023 0
3846.26 77.7023 0
3885.11 77.7023 0
3923.96 77.7023 0
3962.82 77.7023 0
4001.67 77.7023 0
4040.52 77.7023 0
4079.37 77.7023 0
4118.22 77.7023 0
4157.07 77.7023 0
4195.92 77.7023 0
4234.77 77.7023 0
4273.62 77.7023 0
4312.48 77.7023 0
4351.33 77.7023 0
4390.18 77.7023 0
4429.03 77.7023 0
4467.88 77.7023 0
4506.73 77.7023 0
4545.58 77.7023 0
4584.43 77.7023 0
4623.28 77.7023 0
4662.14 77.7023 0
4700.99 77.7023 0
4739.84 77.7023 0
4778.69 77.7023 0
4817.54 77.7023 0
4856.39 77.7023 0
0 116.553 0
38.8511 116.553 0
77.7023 116.553 0
116.553 116.553 0
155.405 116.553 0
194.256 116.553 0
233.107 116.553 0
271.958 116.553 0
310.809 116.553 0
349.66 116.553 0
388.511 116.553 0
427.362 116.553 0
466.214 116.553 0
505.065 116.553 0
543.916 116.553 0
582.767 116.553 0
621.618 116.553 0
660.469 116.553 0
699.32 116.553 0
738.172 116.553 0
777.023 116.553 0
815.874 116.553 0
854.725 116.553 0
893.576 116.553 0
932.427 116.553 0
971.278 116.553 0
1010.13 116.553 0
1048.98 116.553 0
1087.83 116.553 0
1126.68 116.553 0
1165.53 116.553 0
1204.39 116.553 0
1243.24 116.553 0
1282.09 116.553 0
1320.94 116.553 0
1359.79 116.553 0
1398.64 116.553 0
1437.49 116.553 0
1476.34 116.553 0
1515.19 116.553 0
1554.05 116.553 0
1592.9 116.553 0
1631.75 116.553 0
1670.6 116.553 0
1709.45 116.553 0
1748.3 116.553 0
1787.15 116.553 0
1826 116.553 0
1864.85 116.553 0
1903.71 116.553 0
1942.56 116.553 0
1981.41 116.553 0
2020.26 116.553 0
2059.11 116.553 0
2097.96 116.553 0
2136.81 116.553 0
2175.66 116.553 0
2214.51 116.553 0
2253.37 116.553 0
2292.22 116.553 0
2331.07 116.553 0
2369.92 116.553 0
2408.77 116.553 0
2447.62 116.553 0
2486.47 116.553 0
2525.32 116.553 0
2564.17 116.553 0
2603.03 116.553 0
2641.88 116.553 0
2680.73 116.553 0
2719.58 116.553 0
2758.43 116.553 0
2797.28 116.553 0
2836.13 116.553 0
2874.98 116.553 0
2913.83 116.553 0
2952.69 116.553 0
2991.54 116.553 0
3030.39 116.553 0
3069.24 116.553 0
3108.09 116.553 0
3146.94 116.553 0
3185.79 116.553 0
3224.64 116.553 0
3263.5 116.553 0
3302.35 116.553 0
3341.2 116.553 0
3380.05 116.553 0
3418.9 116.553 0
3457.75 116.553 0
3496.6 116.553 0
3535.45 116.553 0
3574.3 116.553 0
3613.16 116.553 0
3652.01 116.553 0
3690.86 116.553 0
3729.71 116.553 0
3768.56 116.553 0
3807.41 116.553 0
3846.26 116.553 0
3885.11 116.553 0
3923.96 116.553 0
3962.82 116.553 0
4001.67 116.553 0
4040.52 116.553 0
4079.37 116.553 0
4118.22 116.553 0
4157.07 116.553 0
4195.92 116.553 0
4234.77 116.553 0
4273.62 116.553 0
4312.48 116.553 0
4351.33 116.553 0
4390.18 116.553 0
4429.03 116.553 0
4467.88 116.553 0
4506.73 116.553 0
4545.58 116.553 0
4584.43 116.553 0
4623.28 116.553 0
4662.14 116.553 0
4700.99 116.553 0
4739.84 116.553 0
4778.69 116.553 0
4817.54 116.553 0
4856.39 116.553 0
0 155.405 0
38.8511 155.405 0
77.7023 155.405 0
116.553 155.405 0
155.405 155.405 0
194.256 155.405 0
233.107 155.405 0
271.958 155.405 0
310.809 155.405 0
349.66 155.405 0
388.511 155.405 0
427.362 155.405 0
466.214 155.405 0
505.065 155.405 0
543.916 155.405 0
582.767 155.405 0
621.618 155.405 0
660.469 155.405 0
699.32 155.405 0
738.172 155.405 0
777.023 155.405 0
815.874 155.405 0
854.725 155.405 0
893.576 155.405 0
932.427 155.405 0
971.278 155.405 0
1010.13 155.405 0
1048.98 155.405 0
1087.83 155.405 0
1126.68 155.405 0
1165.53 155.405 0
1204.39 155.405 0
1243.24 155.405 0
1282.09 155.405 0
1320.94 155.405 0
1359.79 155.405 0
1398.64 155.405 0
1437.49 155.405 0
1476.34 155.405 0
1515.19 155.405 0
1554.05 155.405 0
1592.9 155.405 0
1631.75 155.405 0
1670.6 155.405 0
1709.45 155.405 0
1748.3 155.405 0
1787.15 155.405 0
1826 155.405 0
1864.85 155.405 0
1903.71 155.405 0
1942.56 155.405 0
1981.41 155.405 0
2020.26 155.405 0
2059.11 155.405 0
2097.96 155.405 0
2136.81 155.405 0
2175.66 155.405 0
2214.51 155.405 0
2253.37 155.405 0
2292.22 155.405 0
2331.07 155.405 0
2369.92 155.405 0
2408.77 155.405 0
2447.62 155.405 0
2486.47 155.405 0
2525.32 155.405 0
2564.17 155.405 0
2603.03 155.405 0
2641.88 155.405 0
2680.73 155.405 0
2719.58 155.405 0
2758.43 155.405 0
2797.28 155.405 0
2836.13 155.405 0
2874.98 155.405 0
2913.83 155.405 0
2952.69 155.405 0
2991.54 155.405 0
3030.39 155.405 0
3069.24 155.405 0
3108.09 155.405 0
3146.94 155.405 0
3185.79 155.405 0
3224.64 155.405 0
3263.5 155.405 0
3302.35 155.405 0
3341.2 155.405 0
3380.05 155.405 0
3418.9 155.405 0
3457.75 155.405 0
3496.6 155.405 0
3535.45 155.405 0
[...]
POINT_DATA 31752
SCALARS Density double 
LOOKUP_TABLE default
0.999569
1.00065
0.999173
0.999448
0.999714
0.999724
1.00059
0.999387
1.00066
1.00052
0.998161
0.999571
1.00021
1.00002
1.00047
1.00045
0.999493
0.999512
0.999692
1.00013
1.00132
1.00054
0.999259
1.00115
0.999907
0.99908
0.999759
1.00131
0.99933
1.00027
1.00149
0.999553
0.99976
1.00102
1.00074
1.00022
1.00163
1.00141
1.00125
1.00075
1.00008
1.00142
1.00118
1.00179
1.00234
1.00188
1.0024
1.0018
1.00193
1.00217
1.00185
1.00275
1.00243
1.00231
1.00316
1.00338
1.00354
1.00207
1.00248
1.00387
1.00294
1.00206
1.00333
1.0042
1.00296
1.00322
1.0025
1.00206
1.00313
1.00312
1.00229
1.00289
1.00211
1.00171
1.0026
1.00077
1.0033
1.00255
1.00132
1.00291
1.00248
1.00183
1.00107
1.00119
1.00265
1.00069
1.00045
1.0008
1.00013
1.00007
1.00135
1.00139
1.0003
1.00026
1.00039
1.00104
1.00095
0.999933
1.00016
1.00119
0.999963
1.00039
1.00078
1.00013
1.0008
0.998665
1.00049
1.00139
0.999767
0.999079
0.999543
0.999911
0.999691
0.999505
0.999005
1.00125
1.00087
0.999129
0.998691
0.999431
1.00044
0.999624
0.999543
0.99907
1.00032
1.00053
1.00053
1.00069
1.00081
1.00056
0.999417
0.999303
1.00038
0.999717
0.999719
1.00035
1.0009
0.999485
0.998263
1.00093
0.998581
0.99954
1.00171
0.999216
0.998618
1.00033
1.00056
1.00035
1.00026
1.00113
0.999925
0.99833
1.00031
1.00169
1.0006
0.998287
0.99945
1.00117
1.00058
1.00031
1.0012
0.999643
1.00039
1.00029
1.00101
1.00115
0.999911
1.00001
1.00209
1.00214
1.0007
1.00085
1.00153
1.00204
1.00126
1.00222
1.00151
1.0007
1.00045
1.00142
1.00068
1.00109
1.00243
1.00215
1.0009
1.00197
1.00326
1.00265
1.00157
1.00302
1.00079
1.00187
1.00156
1.00117
1.00267
1.0026
1.00285
1.00213
1.00192
1.00293
1.00101
1.00063
1.00145
1.00216
1.00158
1.00122
1.00109
1.00095
1.00059
1.0008
1.00146
1.00137
0.999508
1.00017
1.00087
1.00061
1.00081
1.00006
0.99915
1.00039
1.00058
1.00049
0.999834
0.999167
1.00087
1.00095
0.998662
0.999748
1.00068
0.998898
0.999194
1.00032
1.00095
1.00001
1.00001
1.00055
1.00009
0.999039
0.999486
1.00094
0.999481
0.999226
1.00084
1.00101
0.997867
1.00003
1.00062
1.00009
1.00048
1.00041
1.00007
1.00077
1.00004
0.999829
0.999473
0.999977
1.00103
1.00093
0.998856
1.00009
0.999904
0.999544
1.00085
1.00007
0.999939
1.00075
1.00013
0.999996
0.999071
1.00035
1.00114
1.0005
0.999493
0.999484
1.00019
1.00035
1.00035
1.00165
0.999636
0.996847
0.999072
1.00184
1.00154
1.00086
1.00013
0.999385
0.998835
0.999721
1.00106
1.00096
1.0004
1.00035
1.00111
1.00017
1.00001
1.00064
1.00088
1.00033
1.00166
1.00165
0.999154
1.00158
1.00162
1.00038
0.999877
1.0005
1.00156
1.00184
1.00037
1.00061
1.00124
1.00128
1.00086
1.00144
1.00101
1.00034
1.00121
1.00158
1.00175
1.00106
1.00076
1.0015
1.00062
1.00077
1.0011
1.00162
1.00092
1.00099
1.00156
1.00217
0.999157
0.999233
1.00047
1.00086
1.00094
1.00156
0.999781
1.00047
0.999157
1.00025
1.00036
1.0001
1.00116
0.999702
1.00112
1.00036
0.999125
1.0009
1.00001
0.999844
1.00035
0.998723
1.0006
1.00044
1.00025
1.00045
0.998841
1.00031
1.00049
0.999391
0.998813
1.00038
1.00016
0.999521
1.00043
0.999577
1.00014
1.0006
0.999376
1.00084
1.00045
1.00098
1.00124
1.00069
0.999112
0.999191
1.00059
1.0009
0.998517
0.999333
0.998873
0.998802
0.999823
0.999526
0.999938
1.00101
1.00018
0.999069
0.999849
1.00134
1.00098
0.998809
0.999432
1.00013
0.999009
1.00112
1.00097
0.999256
0.999785
1.00013
0.998458
1.00043
1.00111
1.00017
1.00012
1.00028
1.00023
1.0008
1.00006
0.999881
0.999588
1.0009
1.00031
1.00019
1.00007
1.00028
1.00176
0.999945
0.998242
1.00056
1.00098
1.00084
1.00027
1.00017
0.999206
1.00101
1.00058
1.00058
1.00191
1.00038
1.00145
1.0022
1.00136
1.0009
1.00085
1.00091
1.00215
1.00182
1.00018
1.00088
1.00127
0.999036
1.00094
1.00237
1.00157
1.00034
0.999644
0.99949
1.001
1.00236
1.00103
0.999769
1.00055
1.0015
1.00191
1.00041
1.0007
1.00175
1.00031
1.00052
1.0014
1.00086
1.00146
1.00052
0.999759
1.00106
0.99991
1.00106
1.00124
1.00005
1.0006
1.00038
1.00043
1.00079
1.00006
1.00088
0.999531
1.00014
1.00047
1.00054
1.00063
1.00052
0.999887
0.999653
0.999719
1.00089
1.00044
1.00072
1.00028
0.999901
0.99945
0.999996
0.999877
1.00058
0.999623
1.00073
1.0013
1.00035
0.999308
1.00054
1.00003
0.999138
0.999845
1.00067
1.00007
1.00084
1.00031
0.999181
1.0007
0.999881
0.99992
1.00025
1.00063
0.999666
1.00073
1.0008
0.999171
0.999355
1.00014
1.00035
1.00098
1.00034
1.00038
0.998873
1.00009
0.999067
0.999016
0.999007
1.00075
1.00082
1.00065
0.999647
1.00074
1.00064
0.999893
0.999146
0.999658
1.00154
0.999623
0.999853
1.00036
0.999957
1.00158
1.00046
1.00059
1.00029
1.00018
1.00068
1.00093
1.00097
0.999467
1.0013
1.00122
0.99939
1.00066
1.00052
1.00191
1.00147
1.00168
1.00091
1.00097
1.00083
1.00016
1.0006
1.00146
1.00113
1.00189
1.00088
1.00071
1.00118
1.00088
1.00159
1.00194
1.00024
1.00098
1.00138
1.00218
1.00081
1.0004
1.00188
1.00067
0.999991
1.00178
1.00017
0.999759
1.00147
1.00158
1.00036
1.00127
1.00076
1.00013
1.00013
1.00122
1.00076
1.00051
1.00045
0.999955
1.00131
1.00043
0.999355
0.999836
0.999566
0.999679
1.00059
0.999857
1.00044
1.00009
1.0004
1.00062
1.00013
1.0013
1.00036
0.998721
0.999157
0.999726
1.00103
1.00037
0.999926
1.00023
0.998891
1.00067
1.00102
0.998952
0.998544
1.00009
1.00023
1.00113
0.998675
0.999441
1.00014
1.00079
1.00111
1.00011
1.00086
1.00145
1.00111
0.999092
0.999507
1.00051
1.00113
0.999693
0.999831
0.999704
0.99974
1.00167
1.00058
0.999221
1.00047
0.999991
0.999535
0.99996
1.00065
0.999974
0.999549
1.00035
1.00128
0.999843
0.998921
1.00094
1.00068
1.00128
1.00039
0.999701
1.00093
1.00021
1.00151
1.00027
1.00077
1.00044
1.00134
1.00148
1.00075
1.0017
1.00065
1.00059
1.00164
1.00156
1.00116
1.00149
1.0008
1.00113
1.00151
1.00106
1.00061
1.0017
1.00148
1.00111
1.00031
1.00123
1.00029
1.00185
1.00164
1.00201
1.00157
1.00126
1.00159
1.00187
1.00192
1.00141
1.00232
1.00129
0.999216
1.00116
1.00164
1.00074
1.00072
1.00169
1.00086
1.00085
1.00087
1.00004
1.00022
1.00156
1.00109
1.00034
1.00037
1.00178
0.999879
1.00058
0.99975
1.00106
0.999905
1.00015
1.0006
1.00112
1.00058
1.00073
0.997684
1.00032
1.00044
1.00055
1.0003
0.999191
0.999856
0.999827
1.0001
1.00125
1.00052
1.00059
1.0003
0.999337
0.999551
1.00077
0.999267
1.00035
0.998319
1.00001
1.0002
0.999677
0.999605
1.00016
1.00083
1.00054
1.00045
0.999879
0.999003
0.999771
0.999524
1.00045
1.00077
1.00022
1.00018
0.998887
0.998394
0.999842
1.00032
0.999735
0.999255
1.00042
1.00056
1.00013
0.999845
0.999663
0.998743
1.00008
1.0001
0.99964
0.999448
1.00063
1.00123
0.999532
1.0004
0.999971
0.998747
1.00079
1.00144
0.99922
1.0003
1.00151
0.999663
1.00059
1.00103
1.00038
1.00155
1.00042
1.00046
1.0014
1.00156
0.999263
1.00099
1.00137
0.999772
1.00196
1.00086
1.0006
1.0019
1.00168
1.00163
1.00052
1.00111
1.00104
1.00107
1.00191
1.00165
1.00113
1.00184
1.00234
1.00137
1.00015
1.00123
1.00059
1.00182
1.00173
1.00117
1.00154
1.00071
1.00062
1.00176
1.00055
1.00071
1.00167
1.00003
1.00132
1.00179
1.00179
1.00016
1.00133
1.00084
1.00109
1.00084
1.00098
1.00157
1.00115
1.00057
1.00064
1.00114
0.999696
1.0006
1.00102
1.00063
1.00109
1.00079
1.00046
1.00032
1.00046
1.00124
1.00032
0.999985
0.999592
1.00087
0.999885
0.998941
1.00037
1.00118
0.999638
1.0004
1.00073
0.998626
1.00012
1.00034
1.00052
0.998421
1.00013
0.999803
0.998729
1.00072
1.00001
1.00007
0.999525
1.00025
1.00039
1.00097
0.999606
0.997818
1.00044
1.00067
1.0002
0.999592
1.00064
0.99914
0.999343
0.999529
1.00036
1.00038
0.999731
0.998455
0.998618
1.00087
1.00116
0.999484
1.00065
1.00041
1.00089
0.999933
0.999686
0.999911
0.999867
1.0008
1.00022
0.998778
0.999975
1.00131
1.0001
0.999749
1.00086
1.00062
1.00125
0.998696
1.00045
1.0016
1.00089
1.00068
1.00046
1.00168
1.00102
1.00037
1.00084
1.00175
1.00161
1.0007
1.00121
1.00088
1.00118
1.00174
1.00088
1.0019
1.00052
1.00078
1.00198
1.00196
1.00094
1.00108
1.0008
1.00164
1.00066
1.00095
1.00197
1.00061
1.00069
1.00136
1.00206
1.00162
1.00094
1.00129
1.00134
1.00117
1.00161
1.0021
1.00124
1.00174
1.00167
1.0004
1.00177
1.00168
1.0008
1.00208
1.0011
1.00026
1.00052
1.00165
0.999819
1.00053
1.00076
1.0017
1.00102
1.00088
1.00028
0.999663
1.00087
1.00127
0.99973
1.00093
1.00139
0.999962
0.999321
1.00068
1.00126
0.999941
0.998662
0.999089
0.999523
1.00083
1.00022
1.00027
0.999121
1.00013
0.998583
1.00204
1.00002
0.999067
1.00071
0.999309
0.999064
0.999392
0.99923
0.999512
1.0001
1.00094
1.00014
0.998941
0.998413
0.99932
1.00029
1.00065
1.00126
1.00113
0.999326
1.00111
0.999459
0.999196
0.999066
0.99963
1.00075
1.0009
1.00104
1.00135
0.99917
1.00151
1.0008
1.00032
1.00006
1
1.00094
1.00131
1.00029
1.00091
1.00105
0.999572
1.00026
0.999673
0.999977
1.0009
1.00063
1.00088
1.00165
1.00042
1.00106
1.00132
1.00145
1.00157
1.00092
1.00064
1.00161
1.0015
1.00182
1.00136
1.00111
1.00162
1.00185
1.00053
1.00104
1.00133
1.0006
1.00176
1.00174
1.0011
1.00137
1.00166
1.00134
1.00175
1.00201
1.00131
1.00146
1.00178
1.00164
1.0015
1.00045
1.00138
1.0013
1.00169
1.00201
1.00141
1.00073
1.00193
1.001
1.00124
1.00148
1.00135
1.00188
1.0016
1.00092
1.00089
1.00162
1.00107
1.0004
0.99986
1.00112
1.00135
1.00064
1.00137
1.00064
0.999947
1.00077
1.00036
1.00048
1.00092
0.99986
0.9993
1.0003
0.999797
1.00092
0.999819
1.0008
0.999402
0.999934
1.00036
1.00014
1.00102
1.00093
0.999614
0.999149
1.00094
1.00099
1.00084
0.999828
1.0008
1.00002
0.999401
0.998108
1.0002
1.00081
0.999262
1.00086
0.999543
1.00075
1.00107
0.999891
0.999914
0.999476
1.00011
0.998772
1.00016
1.00124
1.00099
1.00027
0.998771
1.00051
1.00032
0.999756
1.00062
0.9999
0.999517
1.00061
0.998996
1.00064
1.00048
0.998882
1.00032
1.00167
1.00058
0.999684
1.00131
1.00121
1.0007
1.00015
1.00089
1.00082
1.00129
1.00093
1.0009
1.00028
1.00094
1.00117
1.00109
1.00144
1.00084
1.00091
1.00102
1.00089
1.00152
1.00066
1.00074
1.00144
1.00191
1.00171
1.00175
1.00133
1.0009
1.00212
1.00165
1.00219
1.00183
1.00109
1.00228
1.00113
1.001
1.00124
1.00199
1.00202
1.00209
1.00176
1.00188
1.0009
1.00204
1.0018
1.00169
1.0013
1.00186
1.00135
1.00092
1.00147
1.0019
1.0011
1.00164
1.00107
1.00108
1.00122
1.00054
1.0018
1.00213
1.00105
1.00155
1.00188
1.00131
0.999857
0.999822
1.00076
1.0011
0.99933
1.00057
1.00112
1.00145
1.00018
0.999894
1.00116
1.00048
0.999717
0.999765
1.00023
1.00106
1.00125
1.00039
0.99926
0.998364
1.00112
1.00061
1.00058
1.00002
1.00073
0.998757
1.00106
1.00122
0.99941
1.0001
1.00115
0.999925
0.999784
1.00001
1.00026
1.00042
0.998891
1.00003
1.00076
1.00034
0.999531
0.999864
1.00002
0.999726
1.00072
1.00028
1.00013
1.00057
1.00002
1.00112
1.00042
0.999875
0.998567
0.998616
1.00162
1.00014
0.999336
0.999502
1.00087
1.00107
0.999733
0.999042
1.00047
1.00161
0.999462
1.00069
1.00092
1.00202
1.00154
1.00023
1.00105
1.00095
0.998796
1.00092
1.00182
1.0011
1.002
1.0016
1.00106
1.00042
1.00114
1.00233
1.00134
1.00167
1.00155
1.00119
1.00165
1.00208
1.00199
1.00191
1.00109
1.00114
1.00144
1.00122
1.00126
1.00172
1.00212
1.00156
1.00202
1.00228
1.00128
1.00051
1.00204
1.00172
1.00217
1.00149
1.00158
1.00171
1.00224
1.00147
1.00122
1.00204
1.00249
1.00203
1.00077
1.00149
1.00118
1.00141
1.00163
1.00198
1.00055
1.00083
1.0013
1.00138
1.00163
1.00142
1.00049
0.999112
1.00158
1.0015
1.00144
1.00022
1.00128
1.00137
1.00044
1.00105
1.00012
1.00015
0.999488
1.00158
1.00057
1.00037
1.00018
1.001
1.00003
0.99924
0.999424
0.999934
1.00031
1.00037
1.00037
0.998445
0.999708
0.999033
1.00002
1.00145
1.00144
1.00095
1.00005
1.00029
0.999072
1.00123
0.998867
0.999673
0.999389
0.99993
1.00101
0.999575
0.999374
1
0.998669
0.999984
1.00045
1.00087
0.999964
1.00098
1.00058
1.00085
0.999466
0.999055
1.00025
1.00121
1.0006
1.00089
0.999572
1.00091
1.00016
0.99978
1.00133
1.00073
1.00087
0.99986
1.00025
1.00104
1.00151
1.00021
1.00099
1.00114
1.00176
1.00107
1.00185
1.00115
1.00204
1.0017
1.00098
1.0011
1.00162
1.00127
1.00181
1.00201
1.00154
1.00172
1.00157
1.00094
1.001
1.00194
1.0012
1.00155
1.00122
1.00155
1.00237
1.00188
1.0018
1.0013
1.00227
1.00142
1.00159
1.0016
1.00123
1.00162
1.00211
1.00103
1.00156
1.00127
1.00153
1.00166
1.00224
1.00158
1.0015
1.00158
1.00129
1.00127
1.00199
1.0015
1.00083
1.00177
1.00087
1.00073
1.00042
1.00083
1.0013
1.00141
1.00164
1.00108
1.00152
1.00117
0.999941
1.00062
1.00071
1.00063
1.00056
1.00096
1.0001
0.998874
1.00073
1.00118
1.00054
0.999995
1.00018
1.00004
1.00123
1.00036
0.999112
1.00142
1.00022
0.999698
0.999842
0.999377
0.999014
1.00031
0.999351
0.999069
1.00083
1.0009
1.00057
0.998371
0.999946
1.00032
1.00018
0.999775
1.00097
1.00115
0.99744
0.999548
1.00107
0.998912
1.00095
0.999232
1.00083
0.999812
1
0.99932
1.00142
0.99894
0.999832
1.0001
0.9991
1.00032
1.00074
1.00039
0.999958
1.00049
1.00111
1.00079
1.00014
1.00024
1.00152
1.0014
1.00165
1.00065
0.999719
1.00042
1.00218
1.00148
1.00044
1.00184
1.00194
1.0019
1.0005
1.00133
1.00167
1.00166
1.00177
1.00094
1.00107
1.00167
1.0013
1.00152
1.00134
1.00167
1.00198
1.00145
1.00161
1.00187
1.00133
1.00193
1.00186
1.00167
1.00184
1.00124
1.00143
1.00191
1.00172
1.00154
1.0013
1.00153
1.00178
1.00202
1.00129
1.0014
1.00152
1.00173
1.00168
1.00179
1.00113
1.00144
1.00063
1.00174
1.00212
1.00163
1.00134
1.00158
1.00201
1.00092
1.00117
1.00207
1.00134
1.00137
1.00139
1.00177
1.00089
1.00083
1.00133
1.00077
0.999362
1.00107
1.00107
1.00007
1.00111
1.00117
1.00093
0.999645
0.999549
0.999607
0.999842
0.999671
1.00008
1.00014
1.00021
0.999652
1.00003
1.00014
0.998892
1.00113
1.0012
1.00107
0.999565
0.997827
1.00163
1.00099
0.999782
0.997311
1.00006
1.00081
1.00084
1.00015
1.00055
1.00009
0.999231
1.00064
1.00062
1.00012
1.00104
1.0009
0.999513
0.998258
0.999797
0.999202
1.00041
0.999059
0.999282
1.00156
1.0002
0.999416
1.00125
0.998897
1.00035
1.00098
0.999537
1.00135
1.00086
1.00087
1.00137
1.00117
1.0011
1.00175
1.00032
1.00134
1.00099
1.00153
1.0014
1.00091
1.00059
1.0019
1.00113
1.00182
1.00105
1.00192
1.00204
1.00095
1.00139
1.00148
1.00209
1.00191
1.00188
1.00124
1.00116
1.00181
1.00174
1.00167
1.00206
1.00193
1.00153
1.00149
1.00098
1.00148
1.00127
1.00184
1.00152
1.00109
1.00157
1.00204
1.0007
1.00165
1.00218
1.00109
1.0018
1.00174
1.00104
1.00183
1.00117
1.00122
1.0015
1.00214
1.00221
1.00219
1.00115
1.00063
1.00227
1.00168
1.0014
1.00158
1.00175
1.00172
1.00142
1.00171
1.0012
1.0009
1.00151
1.0017
1.00081
0.999903
1.00122
1.00108
1.00066
1.00038
1.00073
1.00096
1.0004
1.00039
0.999999
1.00051
1.001
1.00073
1.00035
0.998216
1.00069
1.00052
1.00012
0.999975
0.999804
0.999743
1.00086
1.00056
1.00052
0.999075
0.998897
1.00134
1.00082
1.00019
1.00005
1.00006
1.00035
0.998625
1.00047
1.00123
0.999894
0.99894
0.998039
1.00108
1.00078
1.00056
0.998986
1.00065
0.998451
1.0005
1.0009
1.00008
1.00069
1.00059
1.00072
1.00089
0.999434
1.0013
1.00131
0.99991
1.00035
1.0017
1.00158
1.00065
1.00154
1.00149
1.00136
1.00212
1.00095
1.00025
1.00213
1.00174
1.0018
1.00088
1.00172
1.00199
1.00124
1.0017
1.00165
1.0021
1.00137
1.00198
1.00212
1.00117
1.00161
1.00161
1.00193
1.00157
1.0015
1.0017
1.00188
1.00171
1.00142
1.00148
1.00154
1.00167
1.00159
1.00171
1.00129
1.00151
1.00159
1.0016
1.00185
1.00138
1.00157
1.00135
1.00181
1.00171
1.00202
1.00154
1.00131
1.00136
1.00165
1.00092
1.00168
1.0018
1.00186
1.00177
1.00168
1.00171
1.00152
1.00174
1.00155
1.00166
1.00103
1.00082
1.00129
1.00098
1.00118
1.00182
1.00098
1.00116
1.00063
1.00055
1.00079
1.0018
1.00073
1.00029
1.00105
1.00041
1.00073
1.00112
1.00019
1.00111
1.00033
0.999628
1.00079
1.00123
0.9983
0.998566
1.00052
1.00091
1.00058
0.999455
0.998123
1.00014
1.00007
0.999891
1.00098
1.00051
1.0004
1.00019
0.999304
0.998892
1.0007
1.00085
0.999923
1.00019
1.00017
1.00037
0.999906
1.00134
0.999241
1.00054
1.00122
1.00075
1.00065
1.00022
1.00085
1.00174
0.999062
1.0003
1.00172
1.00133
0.999943
1.00073
1.00144
0.998846
1.00062
1.00216
1.00104
1.00083
1.00154
1.00167
1.00077
1.00158
1.00132
1.00137
1.00233
1.00167
1.00169
1.00159
1.00207
1.00191
1.00181
1.00116
1.00189
1.00211
1.00162
1.00141
1.00147
1.00169
1.0014
1.00115
1.00187
1.00176
1.00115
1.00156
1.00206
1.00152
1.00121
1.00166
1.00168
1.00165
1.00182
1.00178
1.00173
1.00126
1.00192
1.00191
1.00137
1.00177
1.00141
1.00147
1.00158
1.00171
1.00214
1.001
1.00205
1.0014
1.00144
1.00151
1.00135
1.0015
1.00212
1.00132
1.00213
1.00157
1.00096
1.00124
1.00227
1.0014
1.00102
1.00139
1.00154
1.00076
1.00102
1.00174
1.00052
1.00117
1.00209
1.00102
1.00024
1.00104
1.00073
1.00017
0.99975
1.00057
0.99878
1.00011
0.999794
1.0014
0.999241
1.00019
1.00029
0.999437
1.001
1.00016
0.999367
0.999586
0.999428
1.00197
1.0012
0.999017
0.998212
1.00049
1.00035
0.99973
1.00027
1.00029
1.00069
0.999515
1.00076
0.999883
1.00002
1.00056
1.00012
0.99948
1.00008
0.999295
1.00137
1.00084
0.999363
1.00067
1.00023
1.00063
1.00082
1.00078
1.00127
1.00015
1.00156
1.00052
0.999911
1.00072
1.00026
1.00027
1.00194
1.0019
1.00108
1.00132
1.00167
1.00132
1.00167
1.00219
1.00029
1.00135
1.00211
1.00136
1.00188
1.00107
1.00199
1.00112
1.00196
1.00128
1.00143
1.00182
1.00127
1.00183
1.00186
1.00168
1.00113
1.00161
1.00136
1.00149
1.00128
1.00154
1.00148
1.00096
1.00149
1.00138
1.00135
1.00124
1.00155
1.00165
1.00126
1.00173
1.00162
1.00183
1.00135
1.00143
1.00175
1.00145
1.00185
1.00178
1.00151
1.00131
1.00193
1.00158
1.00105
1.00149
1.00168
1.00127
1.0018
1.00183
1.00196
1.00141
1.0016
1.001
1.00102
1.00167
1.0021
1.00121
1.00116
1.00142
1.00186
1.00116
1.00069
0.999774
1.00092
1.00067
1.00103
1.00133
1.0019
0.999559
0.998736
1.00123
1.00062
1.00014
1.00129
0.999266
1.00058
1.00072
1.00087
1.00037
0.998669
1.00107
0.999848
1.00029
1.00081
0.999334
0.998249
1.00066
1.0006
1.00013
1.00091
0.999543
0.998891
1.00008
1.00028
1.0004
1.0002
0.999533
1.00049
0.998929
0.999773
0.999977
1.00077
1.00113
0.999605
1.00083
1.00078
0.999621
1.00068
1.0008
1.00101
0.999959
1.00159
1.00113
1.00073
1.00176
1.001
1.00076
1.00197
1.00194
1.00115
1.00102
1.00118
1.00087
1.00198
1.00154
1.0011
1.00184
1.00165
1.00162
1.00163
1.00155
1.00142
1.00167
1.00129
1.00166
1.00136
1.00188
1.00174
1.00137
1.00177
1.00174
1.00107
1.00127
1.00148
1.00135
1.00157
1.0012
1.00125
1.00161
1.00151
1.00125
1.0016
1.00146
1.00126
1.00124
1.00139
1.00156
1.00159
1.00127
1.00152
1.00166
1.00183
1.00164
1.0012
1.00139
1.00139
1.00134
1.00157
1.00208
1.00212
1.00197
1.00041
1.00159
1.00174
1.00147
1.00148
1.00191
1.00134
1.00095
1.00191
1.00206
1.00151
1.002
1.00166
1.00099
1.0009
1.0012
1.00046
1.00108
1.00181
1.00064
1.00063
1.00024
1.0012
1.00144
1.00087
1.00054
1.00073
0.999159
1.00077
1.00119
1.00054
1.00039
0.999133
0.999311
0.998393
1.00058
1.00064
0.998639
1.00014
0.999417
1.00026
1.00023
0.999989
1.00061
1.00022
0.999866
0.999994
1.00074
1.00015
1.00126
0.999985
0.999205
1.0006
1.00108
1.00046
1.00038
1.00092
0.999836
0.99925
1.00037
1.00112
1.00031
1.00051
1.00087
1.00114
1.00011
1.00056
1.00151
1.00114
1.00109
1.0019
1.00143
1.00084
1.00116
1.00153
1.00184
1.00172
1.00156
1.00201
1.00144
1.00218
1.00207
1.00156
1.00136
1.00163
1.00201
1.00103
1.00163
1.00171
1.00163
1.00153
1.00129
1.00159
1.00122
1.0013
1.00145
1.00158
1.00139
1.00155
1.00115
1.00161
1.00151
1.00148
1.00159
1.00147
1.00136
1.00148
1.00155
1.00134
1.0014
1.00131
1.00127
1.00139
1.00143
1.0014
1.00141
1.00142
1.00159
1.00152
1.00158
1.00181
1.00167
1.00156
1.00153
1.0015
1.00175
1.00153
1.00189
1.00151
1.00182
1.00154
1.00137
1.00192
1.00159
1.00186
1.00136
1.00093
1.00175
1.00186
1.00194
1.00089
1.00099
1.00107
1.00127
1.0011
1.00171
1.00171
1.00088
0.999106
0.999333
1.00064
1.00016
0.999759
1.00088
1.00057
1.00098
1.00062
1.00032
1.00107
0.999242
0.999822
1.00051
0.998977
0.998658
1.00083
1.00101
1.00022
0.999767
1.00016
0.999579
0.999982
1.00002
0.999609
0.999341
1.00024
1.00143
0.999605
0.998645
1.001
1.0012
1.00033
1.00084
1.00015
0.998439
1.00061
1.00041
1.00071
1.00087
1.00017
1.00124
1.00144
1.0007
1.00085
1.00177
1.0013
1.00117
1.00207
1.00202
1.00123
1.00113
1.00157
1.00168
1.00163
1.00158
1.00171
1.00187
1.00179
1.00168
1.00153
1.00149
1.0014
1.00187
1.00147
1.00135
1.00176
1.00144
1.00139
1.00125
1.00129
1.001
1.00154
1.00142
1.00158
1.00137
1.00125
1.00144
1.00137
1.00145
1.00146
1.00128
1.00142
1.00123
1.00135
1.0014
1.00124
1.00137
1.00132
1.00122
1.00142