# vtk DataFile Version 3.0
3D MAGNET output
ASCII
DATASET STRUCTURED_GRID
DIMENSIONS 126 126 2
POINTS 31752 double
0 0 0
38.8511 0 0
77.7023 0 0
116.553 0 0
155.405 0 0
194.256 0 0
233.107 0 0
271.958 0 0
310.809 0 0
349.66 0 0
388.511 0 0
427.362 0 0
466.214 0 0
505.065 0 0
543.916 0 0
582.767 0 0
621.618 0 0
660.469 0 0
699.32 0 0
738.172 0 0
777.023 0 0
815.874 0 0
854.725 0 0
893.576 0 0
932.427 0 0
971.278 0 0
1010.13 0 0
1048.98 0 0
1087.83 0 0
1126.68 0 0
1165.53 0 0
1204.39 0 0
1243.24 0 0
1282.09 0 0
1320.94 0 0
1359.79 0 0
1398.64 0 0
1437.49 0 0
1476.34 0 0
1515.19 0 0
1554.05 0 0
1592.9 0 0
1631.75 0 0
1670.6 0 0
1709.45 0 0
1748.3 0 0
1787.15 0 0
1826 0 0
1864.85 0 0
1903.71 0 0
1942.56 0 0
1981.41 0 0
2020.26 0 0
2059.11 0 0
2097.96 0 0
2136.81 0 0
2175.66 0 0
2214.51 0 0
2253.37 0 0
2292.22 0 0
2331.07 0 0
2369.92 0 0
2408.77 0 0
2447.62 0 0
2486.47 0 0
2525.32 0 0
2564.17 0 0
2603.03 0 0
2641.88 0 0
2680.73 0 0
2719.58 0 0
2758.43 0 0
2797.28 0 0
2836.13 0 0
2874.98 0 0
2913.83 0 0
2952.69 0 0
2991.54 0 0
3030.39 0 0
3069.24 0 0
3108.09 0 0
3146.94 0 0
3185.79 0 0
3224.64 0 0
3263.5 0 0
3302.35 0 0
3341.2 0 0
3380.05 0 0
3418.9 0 0
3457.75 0 0
3496.6 0 0
3535.45 0 0
3574.3 0 0
3613.16 0 0
3652.01 0 0
3690.86 0 0
3729.71 0 0
3768.56 0 0
3807.41 0 0
3846.26 0 0
3885.11 0 0
3923.96 0 0
3962.82 0 0
4001.67 0 0
4040.52 0 0
4079.37 0 0
4118.22 0 0
4157.07 0 0
4195.92 0 0
4234.77 0 0
4273.62 0 0
4312.48 0 0
4351.33 0 0
4390.18 0 0
4429.03 0 0
4467.88 0 0
4506.73 0 0
4545.58 0 0
4584.43 0 0
4623.28 0 0
4662.14 0 0
4700.99 0 0
4739.84 0 0
4778.69 0 0
4817.54 0 0
4856.39 0 0
0 38.8511 0
38.8511 38.8511 0
77.7023 38.8511 0
116.553 38.8511 0
155.405 38.8511 0
194.256 38.8511 0
233.107 38.8511 0
271.958 38.8511 0
310.809 38.8511 0
349.66 38.8511 0
388.511 38.8511 0
427.362 38.8511 0
466.214 38.8511 0
505.065 38.8511 0
543.916 38.8511 0
582.767 38.8511 0
621.618 38.8511 0
660.469 38.8511 0
699.32 38.8511 0
738.172 38.8511 0
777.023 38.8511 0
815.874 38.8511 0
854.725 38.8511 0
893.576 38.8511 0
932.427 38.8511 0
971.278 38.8511 0
1010.13 38.8511 0
1048.98 38.8511 0
1087.83 38.8511 0
1126.68 38.8511 0
1165.53 38.8511 0
1204.39 38.8511 0
1243.24 38.8511 0
1282.09 38.8511 0
1320.94 38.8511 0
1359.79 38.8511 0
1398.64 38.8511 0
1437.49 38.8511 0
1476.34 38.8511 0
1515.19 38.8511 0
1554.05 38.8511 0
1592.9 38.8511 0
1631.75 38.8511 0
1670.6 38.8511 0
1709.45 38.8511 0
1748.3 38.8511 0
1787.15 38.8511 0
1826 38.8511 0
1864.85 38.8511 0
1903.71 38.8511 0
1942.56 38.8511 0
1981.41 38.8511 0
2020.26 38.8511 0
2059.11 38.8511 0
2097.96 38.8511 0
2136.81 38.8511 0
2175.66 38.8511 0
2214.51 38.8511 0
2253.37 38.8511 0
2292.22 38.8511 0
2331.07 38.8511 0
2369.92 38.8511 0
2408.77 38.8511 0
2447.62 38.8511 0
2486.47 38.8511 0
2525.32 38.8511 0
2564.17 38.8511 0
2603.03 38.8511 0
2641.88 38.8511 0
2680.73 38.8511 0
2719.58 38.8511 0
2758.43 38.8511 0
2797.28 38.8511 0
2836.13 38.8511 0
2874.98 38.8511 0
2913.83 38.8511 0
2952.69 38.8511 0
2991.54 38.8511 0
3030.39 38.8511 0
3069.24 38.8511 0
3108.09 38.8511 0
3146.94 38.8511 0
3185.79 38.8511 0
3224.64 38.8511 0
3263.5 38.8511 0
3302.35 38.8511 0
3341.2 38.8511 0
3380.05 38.8511 0
3418.9 38.8511 0
3457.75 38.8511 0
3496.6 38.8511 0
3535.45 38.8511 0
3574.3 38.8511 0
3613.16 38.8511 0
3652.01 38.8511 0
3690.86 38.8511 0
3729.71 38.8511 0
3768.56 38.8511 0
3807.41 38.8511 0
3846.26 38.8511 0
3885.11 38.8511 0
3923.96 38.8511 0
3962.82 38.8511 0
4001.67 38.8511 0
4040.52 38.8511 0
4079.37 38.8511 0
4118.22 38.8511 0
4157.07 38.8511 0
4195.92 38.8511 0
4234.77 38.8511 0
4273.62 38.8511 0
4312.48 38.8511 0
4351.33 38.8511 0
4390.18 38.8511 0
4429.03 38.8511 0
4467.88 38.8511 0
4506.73 38.8511 0
4545.58 38.8511 0
4584.43 38.8511 0
4623.28 38.8511 0
4662.14 38.8511 0
4700.99 38.8511 0
4739.84 38.8511 0
4778.69 38.8511 0
4817.54 38.8511 0
4856.39 38.8511 0
0 77.7023 0
38.8511 77.7023 0
77.7023 77.7023 0
116.553 77.7023 0
155.405 77.7023 0
194.256 77.7023 0
233.107 77.7023 0
271.958 77.7023 0
310.809 77.7023 0
349.66 77.7023 0
388.511 77.7023 0
427.362 77.7023 0
466.214 77.7023 0
505.065 77.7023 0
543.916 77.7023 0
582.767 77.7023 0
621.618 77.7023 0
660.469 77.7023 0
699.32 77.7023 0
738.172 77.7023 0
777.023 77.7023 0
815.874 77.7023 0
854.725 77.7023 0
893.576 77.7023 0
932.427 77.7023 0
971.278 77.7023 0
1010.13 77.7023 0
1048.98 77.7023 0
1087.83 77.7023 0
1126.68 77.7023 0
1165.53 77.7023 0
1204.39 77.7023 0
1243.24 77.7023 0
1282.09 77.7023 0
1320.94 77.7023 0
1359.79 77.7023 0
1398.64 77.7023 0
1437.49 77.7023 0
1476.34 77.7023 0
1515.19 77.7023 0
1554.05 77.7023 0
1592.9 77.7023 0
1631.75 77.7023 0
1670.6 77.7023 0
1709.45 77.7023 0
1748.3 77.7023 0
1787.15 77.7023 0
1826 77.7023 0
1864.85 77.7023 0
1903.71 77.7023 0
1942.56 77.7023 0
1981.41 77.7023 0
2020.26 77.7023 0
2059.11 77.7023 0
2097.96 77.7023 0
2136.81 77.7023 0
2175.66 77.7023 0
2214.51 77.7023 0
2253.37 77.7023 0
2292.22 77.7023 0
2331.07 77.7023 0
2369.92 77.7023 0
2408.77 77.7023 0
2447.62 77.7023 0
2486.47 77.7023 0
2525.32 77.7023 0
2564.17 77.7023 0
2603.03 77.7023 0
2641.88 77.7023 0
2680.73 77.7023 0
2719.58 77.7023 0
2758.43 77.7023 0
2797.28 77.7023 0
2836.13 77.7023 0
2874.98 77.7023 0
2913.83 77.7023 0
2952.69 77.7023 0
2991.54 77.7023 0
3030.39 77.7023 0
3069.24 77.7023 0
3108.09 77.7023 0
3146.94 77.7023 0
3185.79 77.7023 0
3224.64 77.7023 0
3263.5 77.7023 0
3302.35 77.7023 0
3341.2 77.7023 0
3380.05 77.7023 0
3418.9 77.7023 0
3457.75 77.7023 0
3496.6 77.7023 0
3535.45 77.7023 0
3574.3 77.7023 0
3613.16 77.7023 0
3652.01 77.7023 0
3690.86 77.7023 0
3729.71 77.7023 0
3768.56 77.7023 0
3807.41 77.7023 0
3846.26 77.7023 0
3885.11 77.7023 0
3923.96 77.7023 0
3962.82 77.7023 0
4001.67 77.7023 0
4040.52 77.7023 0
4079.37 77.7023 0
4118.22 77.7023 0
4157.07 77.7023 0
4195.92 77.7023 0
4234.77 77.7023 0
4273.62 77.7023 0
4312.48 77.7023 0
4351.33 77.7023 0
4390.18 77.7023 0
4429.03 77.7023 0
4467.88 77.7023 0
4506.73 77.7023 0
4545.58 77.7023 0
4584.43 77.7023 0
4623.28 77.7023 0
4662.14 77.7023 0
4700.99 77.7023 0
4739.84 77.7023 0
4778.69 77.7023 0
4817.54 77.7023 0
4856.39 77.7023 0
0 116.553 0
38.8511 116.553 0
77.7023 116.553 0
116.553 116.553 0
155.405 116.553 0
194.256 116.553 0
233.107 116.553 0
271.958 116.553 0
310.809 116.553 0
349.66 116.553 0
388.511 116.553 0
427.362 116.553 0
466.214 116.553 0
505.065 116.553 0
543.916 116.553 0
582.767 116.553 0
621.618 116.553 0
660.469 116.553 0
699.32 116.553 0
738.172 116.553 0
777.023 116.553 0
815.874 116.553 0
854.725 116.553 0
893.576 116.553 0
932.427 116.553 0
971.278 116.553 0
1010.13 116.553 0
1048.98 116.553 0
1087.83 116.553 0
1126.68 116.553 0
1165.53 116.553 0
1204.39 116.553 0
1243.24 116.553 0
1282.09 116.553 0
1320.94 116.553 0
1359.79 116.553 0
1398.64 116.553 0
1437.49 116.553 0
1476.34 116.553 0
1515.19 116.553 0
1554.05 116.553 0
1592.9 116.553 0
1631.75 116.553 0
1670.6 116.553 0
1709.45 116.553 0
1748.3 116.553 0
1787.15 116.553 0
1826 116.553 0
1864.85 116.553 0
1903.71 116.553 0
1942.56 116.553 0
1981.41 116.553 0
2020.26 116.553 0
2059.11 116.553 0
2097.96 116.553 0
2136.81 116.553 0
2175.66 116.553 0
2214.51 116.553 0
2253.37 116.553 0
2292.22 116.553 0
2331.07 116.553 0
2369.92 116.553 0
2408.77 116.553 0
2447.62 116.553 0
2486.47 116.553 0
2525.32 116.553 0
2564.17 116.553 0
2603.03 116.553 0
2641.88 116.553 0
2680.73 116.553 0
2719.58 116.553 0
2758.43 116.553 0
2797.28 116.553 0
2836.13 116.553 0
2874.98 116.553 0
2913.83 116.553 0
2952.69 116.553 0
2991.54 116.553 0
3030.39 116.553 0
3069.24 116.553 0
3108.09 116.553 0
3146.94 116.553 0
3185.79 116.553 0
3224.64 116.553 0
3263.5 116.553 0
3302.35 116.553 0
3341.2 116.553 0
3380.05 116.553 0
3418.9 116.553 0
3457.75 116.553 0
3496.6 116.553 0
3535.45 116.553 0
3574.3 116.553 0
3613.16 116.553 0
3652.01 116.553 0
3690.86 116.553 0
3729.71 116.553 0
3768.56 116.553 0
3807.41 116.553 0
3846.26 116.553 0
3885.11 116.553 0
3923.96 116.553 0
3962.82 116.553 0
4001.67 116.553 0
4040.52 116.553 0
4079.37 116.553 0
4118.22 116.553 0
4157.07 116.553 0
4195.92 116.553 0
4234.77 116.553 0
4273.62 116.553 0
4312.48 116.553 0
4351.33 116.553 0
4390.18 116.553 0
4429.03 116.553 0
4467.88 116.553 0
4506.73 116.553 0
4545.58 116.553 0
4584.43 116.553 0
4623.28 116.553 0
4662.14 116.553 0
4700.99 116.553 0
4739.84 116.553 0
4778.69 116.553 0
4817.54 116.553 0
4856.39 116.553 0
0 155.405 0
38.8511 155.405 0
77.7023 155.405 0
116.553 155.405 0
155.405 155.405 0
194.256 155.405 0
233.107 155.405 0
271.958 155.405 0
310.809 155.405 0
349.66 155.405 0
388.511 155.405 0
427.362 155.405 0
466.214 155.405 0
505.065 155.405 0
543.916 155.405 0
582.767 155.405 0
621.618 155.405 0
660.469 155.405 0
699.32 155.405 0
738.172 155.405 0
777.023 155.405 0
815.874 155.405 0
854.725 155.405 0
893.576 155.405 0
932.427 155.405 0
971.278 155.405 0
1010.13 155.405 0
1048.98 155.405 0
1087.83 155.405 0
1126.68 155.405 0
1165.53 155.405 0
1204.39 155.405 0
1243.24 155.405 0
1282.09 155.405 0
1320.94 155.405 0
1359.79 155.405 0
1398.64 155.405 0
1437.49 155.405 0
1476.34 155.405 0
1515.19 155.405 0
1554.05 155.405 0
1592.9 155.405 0
1631.75 155.405 0
1670.6 155.405 0
1709.45 155.405 0
1748.3 155.405 0
1787.15 155.405 0
1826 155.405 0
1864.85 155.405 0
1903.71 155.405 0
1942.56 155.405 0
1981.41 155.405 0
2020.26 155.405 0
2059.11 155.405 0
2097.96 155.405 0
2136.81 155.405 0
2175.66 155.405 0
2214.51 155.405 0
2253.37 155.405 0
2292.22 155.405 0
2331.07 155.405 0
2369.92 155.405 0
2408.77 155.405 0
2447.62 155.405 0
2486.47 155.405 0
2525.32 155.405 0
2564.17 155.405 0
2603.03 155.405 0
2641.88 155.405 0
2680.73 155.405 0
2719.58 155.405 0
2758.43 155.405 0
2797.28 155.405 0
2836.13 155.405 0
2874.98 155.405 0
2913.83 155.405 0
2952.69 155.405 0
2991.54 155.405 0
3030.39 155.405 0
3069.24 155.405 0
3108.09 155.405 0
3146.94 155.405 0
3185.79 155.405 0
3224.64 155.405 0
3263.5 155.405 0
3302.35 155.405 0
3341.2 155.405 0
3380.05 155.405 0
3418.9 155.405 0
3457.75 155.405 0
3496.6 155.405 0
3535.45 155.405 0
[...]
POINT_DATA 31752
SCALARS Density double 
LOOKUP_TABLE default
0.999626
1.00056
0.999297
0.999528
0.999742
0.99976
1.00051
0.99947
1.00058
1.00045
0.998406
0.999623
1.0002
1.00001
1.0004
1.00039
0.999558
0.999566
0.999733
1.0001
1.00114
1.00045
0.999332
1.00098
0.999905
0.999158
0.999783
1.00113
0.999389
1.00019
1.00125
0.99956
0.999729
1.00084
1.00059
1.00011
1.00133
1.00113
1.00099
1.00054
0.999945
1.0011
1.00088
1.00139
1.00186
1.00145
1.00189
1.00137
1.00148
1.00165
1.00136
1.00216
1.00187
1.00174
1.00247
1.00266
1.00279
1.00149
1.00186
1.00307
1.00226
1.00146
1.00258
1.00337
1.00227
1.00249
1.00186
1.00149
1.00243
1.00242
1.00171
1.00223
1.00157
1.00122
1.00201
1.00042
1.00264
1.00199
1.00094
1.00233
1.00197
1.00141
1.00077
1.00087
1.00217
1.00047
1.00028
1.0006
1.00001
0.999962
1.00108
1.00114
1.00019
1.00016
1.00029
1.00087
1.00078
0.999903
1.0001
1.00102
0.999933
1.00032
1.00064
1.0001
1.00068
0.998821
1.0004
1.00122
0.9998
0.999181
0.999607
0.999924
0.999732
0.999575
0.999127
1.00108
1.00078
0.999246
0.998856
0.999505
1.00038
0.999677
0.999603
0.9992
1.00028
1.00045
1.00046
1.00059
1.00072
1.00052
0.999492
0.999399
1.00032
0.999746
0.999741
1.0003
1.0008
0.999547
0.998485
1.00081
0.998777
0.999603
1.0015
0.999308
0.998779
1.0003
1.0005
1.00028
1.00022
1.00098
0.999909
0.998521
1.00025
1.00147
1.0005
0.998466
0.999496
1.00099
1.00046
1.00024
1.00099
0.999641
1.00027
1.00019
1.0008
1.00093
0.999854
0.999902
1.00172
1.00177
1.00048
1.00061
1.00121
1.00164
1.00095
1.00177
1.00115
1.00044
1.00021
1.00104
1.00039
1.00075
1.00193
1.00167
1.00055
1.00149
1.00265
1.00209
1.00114
1.00243
1.00047
1.0014
1.00114
1.0008
1.00213
1.00207
1.00228
1.00163
1.00147
1.00239
1.0007
1.00035
1.0011
1.00174
1.00123
1.00091
1.00081
1.0007
1.00038
1.00059
1.00118
1.00109
0.999489
1.00006
1.0007
1.00047
1.00064
1.00001
0.999203
1.0003
1.00047
1.00039
0.999822
0.999236
1.00075
1.00081
0.998805
0.999766
1.0006
0.999031
0.99928
1.00028
1.00083
0.999995
1
1.00047
1.00008
0.999162
0.999558
1.00082
0.99955
0.999315
1.00074
1.00088
0.998136
1
1.00055
1.00007
1.0004
1.00036
1.00006
1.00065
1.00003
0.999834
0.999541
0.999984
1.0009
1.0008
0.999001
1.00008
0.999909
0.999603
1.00074
1.00005
0.999945
1.00065
1.00011
0.99998
0.999183
1.0003
1.00099
1.00044
0.999539
0.999547
1.00017
1.00029
1.0003
1.00144
0.999679
0.997231
0.999177
1.00159
1.00131
1.00073
1.0001
0.999424
0.998959
0.999731
1.00088
1.00079
1.00028
1.00025
1.00092
1.00008
0.999939
1.00049
1.00068
1.0002
1.00138
1.00134
0.999154
1.00129
1.00134
1.00022
0.999761
1.00031
1.00124
1.00149
1.00019
1.00041
1.00097
1.00099
1.00062
1.00114
1.00074
1.00016
1.00093
1.00125
1.00141
1.00079
1.00052
1.0012
1.00042
1.00054
1.00084
1.00131
1.00069
1.00075
1.00127
1.00181
0.999163
0.999228
1.00034
1.00066
1.00074
1.00129
0.999735
1.00035
0.999225
1.00017
1.00027
1.00006
1.00095
0.999699
1.00094
1.00028
0.99921
1.00076
0.999992
0.999859
1.00029
0.998872
1.00051
1.00037
1.00021
1.00038
0.998977
1.00028
1.00042
0.999454
0.99898
1.00034
1.00015
0.99958
1.00037
0.999638
1.00013
1.00051
0.999446
1.00071
1.0004
1.00085
1.00107
1.00059
0.999213
0.999307
1.00052
1.00078
0.99872
0.999415
0.999033
0.998963
0.999851
0.999589
0.999949
1.00089
1.00015
0.999167
0.999856
1.00118
1.00087
0.998955
0.999508
1.00011
0.999132
1.00097
1.00085
0.999346
0.999812
1.0001
0.998654
1.00036
1.00096
1.00013
1.00008
1.00022
1.00017
1.00068
1.00003
0.999855
0.999619
1.00074
1.00023
1.00012
1.00001
1.0002
1.0015
0.999889
0.998398
1.00043
1.00079
1.00065
1.00018
1.00006
0.99922
1.00079
1.00041
1.00041
1.00157
1.00022
1.00116
1.00183
1.00108
1.00067
1.00061
1.00068
1.00178
1.00149
1
1.00065
1.00099
0.999008
1.00071
1.00198
1.00126
1.00017
0.999552
0.999415
1.00077
1.00199
1.00079
0.999661
1.00037
1.00123
1.00157
1.00025
1.00051
1.00144
1.00019
1.00037
1.00114
1.00068
1.0012
1.00038
0.999728
1.00087
0.999867
1.00088
1.00103
1.00001
1.00049
1.00029
1.00033
1.00065
1.00003
1.00076
0.999569
1.00009
1.0004
1.00045
1.00053
1.00045
0.9999
0.999682
0.999734
1.00076
1.00037
1.00061
1.00024
0.999918
0.999521
0.999992
0.999902
1.00052
0.99966
1.00061
1.00115
1.00029
0.999387
1.00047
1.00002
0.99924
0.999878
1.00059
1.00006
1.00074
1.00026
0.999282
1.00059
0.999893
0.999937
1.00023
1.00054
0.999705
1.00063
1.0007
0.999273
0.999423
1.00011
1.0003
1.00085
1.0003
1.0003
0.999024
1.00009
0.999213
0.999131
0.999124
1.00064
1.0007
1.00054
0.999703
1.00062
1.00053
0.999881
0.999213
0.999673
1.00132
0.999649
0.999823
1.00026
0.999903
1.00132
1.00035
1.00044
1.00018
1.0001
1.00052
1.00074
1.00077
0.999425
1.00106
1.001
0.999355
1.00046
1.00036
1.00159
1.0012
1.00136
1.00068
1.00074
1.00062
1.00002
1.00041
1.00116
1.00088
1.00156
1.00066
1.00051
1.00091
1.00065
1.00128
1.0016
1.00009
1.00075
1.00112
1.00182
1.0006
1.00023
1.00157
1.00048
0.999879
1.00148
1.00008
0.999687
1.00122
1.0013
1.00022
1.00104
1.0006
1.00004
1.00005
1.00101
1.00061
1.00039
1.00034
0.999909
1.0011
1.00035
0.9994
0.999835
0.999607
0.999704
1.00049
0.99986
1.00036
1.00007
1.00032
1.00053
1.00011
1.00111
1.00031
0.998896
0.999253
0.999762
1.00091
1.00032
0.999938
1.00019
0.999042
1.00059
1.0009
0.999095
0.99872
1.00007
1.00021
1.00099
0.998858
0.999501
1.00011
1.00069
1.00098
1.00008
1.00073
1.00125
1.00096
0.999197
0.999557
1.00046
1.00099
0.99973
0.999835
0.999728
0.999791
1.00146
1.00049
0.99931
1.00039
0.999981
0.999587
0.999955
1.00056
0.999982
0.999582
1.00028
1.0011
0.999838
0.999042
1.00078
1.00055
1.00109
1.0003
0.999696
1.00075
1.00013
1.00127
1.00019
1.00059
1.00031
1.0011
1.00123
1.00057
1.0014
1.00048
1.00042
1.00134
1.00127
1.00092
1.0012
1.00059
1.00088
1.00122
1.00082
1.0004
1.00139
1.00121
1.00084
1.00015
1.00095
1.00013
1.00152
1.00133
1.00165
1.00128
1.00097
1.00127
1.00153
1.00156
1.00112
1.00195
1.00101
0.999162
1.00091
1.00136
1.00052
1.00051
1.00137
1.00065
1.00064
1.00067
0.999928
1.00009
1.00128
1.00087
1.00019
1.00025
1.00149
0.999823
1.00044
0.999729
1.00086
0.999864
1.00007
1.00048
1.00093
1.00049
1.00059
0.997949
1.00025
1.00038
1.00045
1.00024
0.999286
0.999854
0.999831
1.00008
1.00108
1.00044
1.00051
1.00024
0.999411
0.999612
1.00067
0.99938
1.00031
0.998532
1.00001
1.00019
0.999704
0.999654
1.00015
1.00072
1.00047
1.0004
0.999887
0.999116
0.999794
0.999578
1.0004
1.00068
1.00019
1.00016
0.999029
0.998598
0.999874
1.00029
0.999768
0.99935
1.00037
1.00049
1.0001
0.999859
0.999688
0.998898
1.00007
1.00009
0.99967
0.99951
1.00055
1.00106
0.999565
1.00031
0.999947
0.998876
1.00066
1.00123
0.999277
1.00023
1.00128
0.999643
1.00046
1.00084
1.00026
1.00129
1.00028
1.00031
1.00115
1.00127
0.999258
1.00078
1.0011
0.999691
1.00162
1.00065
1.0004
1.00156
1.00137
1.00133
1.00033
1.00084
1.00079
1.00082
1.00157
1.00133
1.00086
1.00149
1.00195
1.00107
0.999983
1.00095
1.00039
1.00148
1.0014
1.0009
1.00124
1.0005
1.00043
1.00143
1.00034
1.00051
1.00136
0.999891
1.00105
1.00148
1.00144
1.00003
1.00105
1.00063
1.00085
1.00064
1.00075
1.00129
1.00093
1.00042
1.00049
1.00092
0.999667
1.00045
1.00083
1.00049
1.0009
1.00065
1.00035
1.00023
1.00037
1.00105
1.00026
0.999954
0.999624
1.00075
0.999879
0.999064
1.0003
1.00101
0.999682
1.00034
1.00062
0.9988
1.00009
1.00031
1.00043
0.998636
1.00012
0.999822
0.99891
1.00063
1.00003
1.00005
0.999573
1.00022
1.00034
1.00084
0.999643
0.998087
1.00038
1.00059
1.00016
0.99964
1.00057
0.999264
0.999412
0.999581
1.00031
1.00035
0.999771
0.998654
0.998786
1.00075
1.00101
0.99954
1.00053
1.00037
1.00075
0.999921
0.99972
0.999903
0.999855
1.00067
1.00018
0.998898
0.999933
1.00111
1.00004
0.999721
1.0007
1.0005
1.00102
0.998777
1.00032
1.00133
1.00069
1.00049
1.0003
1.00139
1.00079
1.00021
1.00063
1.00143
1.00131
1.0005
1.00093
1.00065
1.00092
1.0014
1.00066
1.00156
1.00031
1.00054
1.00163
1.00162
1.0007
1.00081
1.00058
1.00132
1.00044
1.0007
1.00161
1.00039
1.00046
1.00106
1.00171
1.00129
1.00068
1.00101
1.00105
1.00089
1.0013
1.00173
1.00096
1.00141
1.00135
1.00021
1.00145
1.00137
1.00058
1.00173
1.00087
1.00011
1.00036
1.00136
0.999751
1.00037
1.0006
1.00143
1.00083
1.0007
1.00018
0.999646
1.00071
1.00108
0.999718
1.00077
1.00118
0.99993
0.999384
1.00057
1.0011
0.999931
0.998809
0.999193
0.99959
1.00073
1.00019
1.00022
0.999237
1.0001
0.998772
1.00179
1.00001
0.999173
1.00063
0.999417
0.999182
0.999478
0.999339
0.999574
1.0001
1.00084
1.00013
0.999096
0.998617
0.999408
1.00025
1.00056
1.0011
1.00098
0.999408
1.00095
0.999544
0.999298
0.999186
0.999663
1.00064
1.00077
1.00091
1.00116
0.999249
1.00128
1.00069
1.00026
1.00002
0.999956
1.0008
1.00111
1.00021
1.00075
1.00087
0.999573
1.00018
0.99965
0.999903
1.00073
1.00047
1.00068
1.00138
1.00026
1.00082
1.00106
1.00116
1.00126
1.0007
1.00044
1.0013
1.0012
1.00148
1.00106
1.00084
1.00131
1.00151
1.00031
1.00079
1.00105
1.00039
1.00143
1.00141
1.00083
1.00107
1.00133
1.00103
1.00141
1.00165
1.001
1.00115
1.00144
1.00131
1.00118
1.00024
1.00108
1.00102
1.00136
1.00165
1.00111
1.0005
1.00158
1.00075
1.00095
1.00118
1.00107
1.00154
1.00129
1.00068
1.00066
1.00132
1.00084
1.00024
0.999771
1.00089
1.00109
1.00049
1.00113
1.00047
0.999876
1.0006
1.00026
1.00036
1.00076
0.999833
0.999341
1.00023
0.999807
1.00078
0.999814
1.00067
0.999473
0.99992
1.00028
1.00011
1.00088
1.0008
0.999657
0.999242
1.0008
1.00085
1.00073
0.999844
1.0007
1.00005
0.999458
0.998349
1.00018
1.00071
0.99936
1.00074
0.999602
1.00065
1.00094
0.999905
0.999913
0.999548
1.0001
0.998935
1.00014
1.00109
1.00086
1.00021
0.998917
1.00044
1.00028
0.999787
1.00052
0.9999
0.999588
1.0005
0.999109
1.00053
1.0004
0.999002
1.00024
1.00143
1.00046
0.999661
1.00109
1.00101
1.00054
1.00007
1.0007
1.00063
1.00105
1.00073
1.00071
1.00014
1.00072
1.00092
1.00085
1.00115
1.00062
1.00069
1.00079
1.00066
1.00122
1.00045
1.0005
1.00114
1.00156
1.00138
1.00142
1.00104
1.00063
1.00175
1.00133
1.00181
1.00148
1.00081
1.00189
1.00086
1.00073
1.00095
1.00163
1.00165
1.00173
1.00143
1.00152
1.00063
1.00167
1.00146
1.00135
1.00101
1.00151
1.00104
1.00066
1.00116
1.00155
1.00084
1.00132
1.00081
1.00082
1.00096
1.00033
1.00147
1.00177
1.00081
1.00124
1.00157
1.00105
0.999765
0.99974
1.00059
1.00089
0.999348
1.00043
1.00092
1.0012
1.0001
0.999845
1.00097
1.0004
0.999719
0.999751
1.00016
1.0009
1.00108
1.00034
0.999326
0.998561
1.00096
1.00052
1.00049
1.00002
1.00062
0.998905
1.00092
1.00106
0.999471
1.00009
1.001
0.999933
0.999803
1.00002
1.00022
1.00034
0.999041
1.00002
1.00067
1.00029
0.999606
0.999879
0.999998
0.999761
1.00061
1.00024
1.0001
1.00048
1.00002
1.00097
1.00035
0.99989
0.998731
0.998782
1.00142
1.00011
0.99938
0.999535
1.00073
1.00091
0.999716
0.9991
1.00037
1.00135
0.999457
1.00052
1.00073
1.0017
1.00128
1.00011
1.00083
1.00073
0.998822
1.0007
1.0015
1.00084
1.00164
1.0013
1.0008
1.00022
1.00086
1.00194
1.00105
1.00133
1.00124
1.0009
1.00132
1.00172
1.00163
1.00156
1.00082
1.00086
1.00114
1.00094
1.00096
1.00139
1.00175
1.00124
1.00165
1.00191
1.00098
1.00029
1.00168
1.0014
1.0018
1.00118
1.00125
1.00138
1.00185
1.00116
1.00092
1.00166
1.0021
1.00166
1.00054
1.00118
1.0009
1.0011
1.00132
1.00163
1.00034
1.00061
1.00103
1.0011
1.00132
1.00114
1.00031
0.9991
1.00129
1.00126
1.00116
1.0001
1.00106
1.00112
1.00032
1.00087
1.00006
1.00007
0.999509
1.00135
1.00047
1.00029
1.00013
1.00085
1.00001
0.999317
0.999483
0.999945
1.00027
1.00032
1.00032
0.998642
0.999734
0.999149
1.00001
1.00127
1.00124
1.0008
1.00003
1.00026
0.999199
1.00105
0.999013
0.999706
0.99947
0.999944
1.00089
0.999626
0.999465
1
0.998833
0.999963
1.00039
1.00076
0.999955
1.00084
1.0005
1.00073
0.999528
0.999147
1.0002
1.00104
1.00048
1.00073
0.999603
1.00074
1.0001
0.999742
1.0011
1.00058
1.00067
0.999794
1.00013
1.00082
1.00124
1.00008
1.00076
1.0009
1.00143
1.00082
1.00151
1.00088
1.00168
1.00137
1.00073
1.00083
1.00129
1.00099
1.00147
1.00165
1.00121
1.00138
1.00125
1.00068
1.00075
1.0016
1.00092
1.00123
1.00092
1.00122
1.00199
1.00154
1.00146
1.00101
1.0019
1.00112
1.00127
1.00128
1.00094
1.0013
1.00177
1.00077
1.00124
1.00099
1.00122
1.00133
1.00187
1.00127
1.00119
1.00126
1.001
1.00097
1.00163
1.00118
1.0006
1.00146
1.00063
1.0005
1.00024
1.0006
1.00102
1.00112
1.00133
1.00083
1.00124
1.00093
0.999855
1.00044
1.00055
1.00047
1.00042
1.00078
1.00002
0.998963
1.00059
1.001
1.00043
0.999953
1.00011
1.00001
1.00106
1.0003
0.999199
1.00123
1.00018
0.999724
0.999858
0.999467
0.999144
1.00027
0.999436
0.999182
1.0007
1.0008
1.00049
0.998574
0.999949
1.00028
1.00016
0.999789
1.00084
1.00101
0.997773
0.999601
1.00094
0.999078
1.00081
0.999333
1.0007
0.999835
0.999986
0.999402
1.00123
0.999076
0.999842
1.00009
0.999183
1.00025
1.00063
1.0003
0.999918
1.00036
1.00092
1.00064
1.00005
1.00011
1.00125
1.00115
1.00135
1.00046
0.999626
1.00025
1.00182
1.0012
1.00025
1.00149
1.0016
1.00155
1.00028
1.00103
1.00136
1.00134
1.00143
1.00067
1.0008
1.00134
1.00101
1.00121
1.00104
1.00134
1.00162
1.00114
1.0013
1.00153
1.00104
1.00159
1.00153
1.00136
1.00151
1.00095
1.00113
1.00157
1.00141
1.00125
1.001
1.00122
1.00145
1.00168
1.001
1.0011
1.00121
1.0014
1.00137
1.00145
1.00086
1.00113
1.00041
1.00141
1.00176
1.0013
1.00103
1.00126
1.00165
1.00066
1.00089
1.0017
1.00105
1.00107
1.00111
1.00146
1.00066
1.00061
1.00107
1.00057
0.99934
1.00085
1.00087
0.999982
1.0009
1.00096
1.00076
0.999637
0.999559
0.999632
0.999836
0.999682
1.00005
1.00011
1.00017
0.99969
1.00002
1.00009
0.999038
1.00098
1.00104
1.00093
0.999595
0.998098
1.00142
1.00088
0.999797
0.997662
1.00005
1.00071
1.00072
1.00013
1.00048
1.00008
0.999313
1.00055
1.00053
1.00008
1.00091
1.00078
0.999567
0.998472
0.999824
0.999309
1.00034
0.999155
0.999357
1.00135
1.00014
0.999446
1.00105
0.998997
1.00025
1.0008
0.999542
1.00111
1.00067
1.00068
1.00111
1.00092
1.00087
1.00142
1.00016
1.00105
1.00076
1.00123
1.00111
1.00066
1.00037
1.00155
1.00086
1.00146
1.00078
1.00157
1.00168
1.00069
1.00107
1.00117
1.00172
1.00157
1.00154
1.00096
1.00089
1.00149
1.00142
1.00135
1.00172
1.00159
1.00122
1.00119
1.00073
1.00118
1.00099
1.00152
1.00123
1.00082
1.00127
1.00171
1.00045
1.00134
1.00184
1.00082
1.00148
1.00142
1.00077
1.0015
1.00089
1.00094
1.00118
1.00178
1.00184
1.00181
1.00086
1.0004
1.00189
1.00136
1.00109
1.00127
1.00142
1.00139
1.00111
1.00138
1.00093
1.00066
1.00122
1.0014
1.0006
0.999805
1.00099
1.00087
1.00049
1.00026
1.00058
1.00077
1.0003
1.00029
0.999963
1.00041
1.00085
1.00062
1.00029
0.998413
1.00059
1.00046
1.00009
0.99998
0.999818
0.999768
1.00075
1.0005
1.00045
0.999165
0.999022
1.00118
1.00073
1.00015
1.00003
1.00006
1.00029
0.998791
1.00042
1.00108
0.999903
0.999074
0.998289
1.00094
1.00068
1.00047
0.99912
1.00056
0.998628
1.00041
1.00077
1.00003
1.00057
1.00047
1.00058
1.00071
0.999439
1.00108
1.00107
0.999836
1.00022
1.00141
1.00129
1.00046
1.00122
1.00119
1.00109
1.00176
1.00069
1.00007
1.00175
1.00141
1.00146
1.00062
1.00139
1.00164
1.00095
1.00136
1.00132
1.00175
1.00107
1.00163
1.00177
1.00089
1.0013
1.0013
1.00159
1.00127
1.0012
1.00138
1.00157
1.0014
1.00113
1.00118
1.00124
1.00138
1.0013
1.0014
1.00102
1.00121
1.0013
1.00131
1.00153
1.00109
1.00127
1.00106
1.00149
1.0014
1.00168
1.00124
1.00102
1.00107
1.00134
1.00067
1.00135
1.00147
1.00152
1.00143
1.00134
1.00138
1.0012
1.00139
1.00124
1.00134
1.00077
1.00059
1.00102
1.00074
1.00091
1.0015
1.00076
1.00091
1.00044
1.00038
1.0006
1.00151
1.00056
1.00019
1.00086
1.0003
1.00058
1.00094
1.00014
1.00093
1.00025
0.999647
1.00067
1.00107
0.998515
0.998723
1.00043
1.00078
1.00052
0.999526
0.998361
1.00012
1.00006
0.999925
1.00086
1.00043
1.00035
1.00017
0.999379
0.999036
1.00062
1.00073
0.999917
1.00015
1.00014
1.0003
0.999916
1.00117
0.999328
1.00045
1.00103
1.00063
1.00053
1.00013
1.0007
1.00148
0.999114
1.0002
1.00145
1.00109
0.99986
1.00056
1.00118
0.99887
1.00043
1.00181
1.00079
1.00059
1.00125
1.00135
1.00054
1.00127
1.00102
1.00107
1.00195
1.00134
1.00135
1.00126
1.00171
1.00157
1.00146
1.00089
1.00155
1.00176
1.00131
1.00111
1.00118
1.00139
1.00112
1.00088
1.00156
1.00146
1.00088
1.00126
1.00174
1.00124
1.00095
1.00136
1.00139
1.00135
1.00151
1.00148
1.00142
1.00098
1.00162
1.00159
1.00108
1.00146
1.00113
1.00117
1.00128
1.0014
1.0018
1.00075
1.0017
1.00111
1.00114
1.0012
1.00105
1.0012
1.00176
1.00103
1.00175
1.00126
1.00068
1.00095
1.00189
1.00111
1.00075
1.00109
1.00123
1.00053
1.00078
1.00143
1.00034
1.00092
1.00175
1.0008
1.00011
1.00084
1.00058
1.00009
0.99974
1.00045
0.998904
1.00005
0.999809
1.00121
0.999317
1.00013
1.00023
0.999499
1.00087
1.00015
0.999451
0.999615
0.999491
1.00172
1.00106
0.999126
0.998435
1.00042
1.00031
0.999753
1.00022
1.00026
1.00058
0.999562
1.00064
0.999892
1.00002
1.00048
1.00009
0.999528
1.00005
0.999364
1.00118
1.00071
0.999411
1.00054
1.00015
1.00049
1.00065
1.00062
1.00104
1.00006
1.00128
1.00038
0.999825
1.00053
1.0001
1.00011
1.00159
1.00156
1.00081
1.00102
1.00134
1.00103
1.00134
1.00182
1.00008
1.00105
1.00176
1.00107
1.00154
1.0008
1.00165
1.00086
1.00163
1.001
1.00113
1.00152
1.00099
1.00152
1.00156
1.00138
1.00088
1.00132
1.00109
1.00121
1.00102
1.00127
1.0012
1.00072
1.00122
1.00112
1.00108
1.00098
1.00128
1.00137
1.001
1.00144
1.00133
1.00153
1.00107
1.00115
1.00144
1.00116
1.00154
1.00147
1.0012
1.00104
1.00161
1.00128
1.00078
1.00118
1.00137
1.00098
1.00147
1.00149
1.0016
1.00111
1.00128
1.00075
1.00075
1.00135
1.00173
1.00092
1.00088
1.00112
1.00153
1.00092
1.0005
0.999696
1.00072
1.00051
1.00081
1.0011
1.00162
0.999557
0.998845
1.00104
1.00051
1.00009
1.00108
0.999327
1.00048
1.00063
1.00073
1.0003
0.998836
1.00091
0.999892
1.00025
1.0007
0.999409
0.998468
1.00057
1.0005
1.00011
1.00079
0.999611
0.999029
1.00007
1.00024
1.00033
1.00016
0.9996
1.00041
0.999047
0.999782
0.999951
1.00064
1.00096
0.999608
1.00068
1.00062
0.999597
1.00053
1.00064
1.00078
0.999869
1.00131
1.00089
1.00052
1.00145
1.00075
1.00052
1.00162
1.0016
1.00088
1.00076
1.0009
1.00062
1.00163
1.00123
1.00081
1.0015
1.00134
1.0013
1.00132
1.00124
1.00114
1.00137
1.00102
1.00135
1.00109
1.00157
1.00145
1.0011
1.00148
1.00146
1.00081
1.00101
1.00121
1.0011
1.00129
1.00095
1.00099
1.00133
1.00124
1.00099
1.00132
1.00119
1.001
1.00099
1.00112
1.00129
1.00132
1.00101
1.00125
1.00137
1.00154
1.00135
1.00092
1.00112
1.00111
1.00106
1.00128
1.00175
1.00179
1.00163
1.00019
1.00127
1.00142
1.00117
1.00118
1.00157
1.00104
1.00069
1.00156
1.00169
1.0012
1.00164
1.00133
1.00073
1.00068
1.00094
1.00029
1.00084
1.00149
1.00047
1.00046
1.00013
1.00098
1.0012
1.0007
1.00043
1.0006
0.999219
1.00065
1.001
1.00044
1.00031
0.999234
0.999378
0.998599
1.00051
1.00057
0.998806
1.0001
0.999509
1.00024
1.00019
0.999983
1.00053
1.00019
0.999872
0.999992
1.00063
1.00011
1.0011
0.999974
0.999276
1.00049
1.00092
1.00037
1.0003
1.00077
0.999811
0.999289
1.00027
1.00093
1.00021
1.00036
1.00068
1.00091
0.999988
1.00037
1.00123
1.00089
1.00084
1.00157
1.00114
1.00059
1.00087
1.00122
1.00149
1.00138
1.00124
1.00165
1.00113
1.00183
1.00173
1.00124
1.00107
1.00133
1.00169
1.00077
1.00133
1.00141
1.00135
1.00125
1.00103
1.00131
1.00097
1.00103
1.00118
1.00131
1.00113
1.00128
1.0009
1.00134
1.00125
1.00121
1.00134
1.00121
1.0011
1.00122
1.00129
1.00108
1.00114
1.00106
1.00102
1.00113
1.00117
1.00115
1.00115
1.00116
1.00132
1.00124
1.00129
1.00151
1.00137
1.00127
1.00124
1.00122
1.00144
1.00123
1.00156
1.00121
1.00149
1.00123
1.00107
1.00158
1.00128
1.00152
1.00106
1.00067
1.00141
1.00152
1.00159
1.00064
1.00076
1.00083
1.00101
1.00085
1.0014
1.00142
1.00068
0.999123
0.999355
1.00053
1.00009
0.999734
1.00072
1.00046
1.00083
1.00052
1.00026
1.00091
0.99932
0.999841
1.00043
0.999107
0.998817
1.00072
1.00089
1.00019
0.999782
1.00013
0.99962
0.999972
1.00002
0.999668
0.999412
1.0002
1.00123
0.999641
0.998808
1.00084
1.00104
1.00026
1.00071
1.00008
0.998584
1.00048
1.00031
1.00055
1.00069
1.00006
1.00099
1.00117
1.0005
1.00062
1.00145
1.00102
1.00089
1.00171
1.00166
1.00093
1.00085
1.00126
1.00136
1.00131
1.00127
1.00138
1.00153
1.00147
1.00136
1.00123
1.00119
1.00111
1.00156
1.00119
1.00107
1.00147
1.00118
1.00112
1.00099
1.00104
1.00076
1.00127
1.00116
1.00132
1.00112
1.00101
1.00118
1.00112
1.00121
1.00121
1.00104
1.00117
1.001
1.0011
1.00116
1.001
1.00113
1.00108
1.00098
1.00118
1.00114
1.00082