# vtk DataFile Version 3.0
3D MAGNET output
ASCII
DATASET STRUCTURED_GRID
DIMENSIONS 126 126 2
POINTS 31752 double
0 0 0
38.8511 0 0
77.7023 0 0
116.553 0 0
155.405 0 0
194.256 0 0
233.107 0 0
271.958 0 0
310.809 0 0
349.66 0 0
388.511 0 0
427.362 0 0
466.214 0 0
505.065 0 0
543.916 0 0
582.767 0 0
621.618 0 0
660.469 0 0
699.32 0 0
738.172 0 0
777.023 0 0
815.874 0 0
854.725 0 0
893.576 0 0
932.427 0 0
971.278 0 0
1010.13 0 0
1048.98 0 0
1087.83 0 0
1126.68 0 0
1165.53 0 0
1204.39 0 0
1243.24 0 0
1282.09 0 0
1320.94 0 0
1359.79 0 0
1398.64 0 0
1437.49 0 0
1476.34 0 0
1515.19 0 0
1554.05 0 0
1592.9 0 0
1631.75 0 0
1670.6 0 0
1709.45 0 0
1748.3 0 0
1787.15 0 0
1826 0 0
1864.85 0 0
1903.71 0 0
1942.56 0 0
1981.41 0 0
2020.26 0 0
2059.11 0 0
2097.96 0 0
2136.81 0 0
2175.66 0 0
2214.51 0 0
2253.37 0 0
2292.22 0 0
2331.07 0 0
2369.92 0 0
2408.77 0 0
2447.62 0 0
2486.47 0 0
2525.32 0 0
2564.17 0 0
2603.03 0 0
2641.88 0 0
2680.73 0 0
2719.58 0 0
2758.43 0 0
2797.28 0 0
2836.13 0 0
2874.98 0 0
2913.83 0 0
2952.69 0 0
2991.54 0 0
3030.39 0 0
3069.24 0 0
3108.09 0 0
3146.94 0 0
3185.79 0 0
3224.64 0 0
3263.5 0 0
3302.35 0 0
3341.2 0 0
3380.05 0 0
3418.9 0 0
3457.75 0 0
3496.6 0 0
3535.45 0 0
3574.3 0 0
3613.16 0 0
3652.01 0 0
3690.86 0 0
3729.71 0 0
3768.56 0 0
3807.41 0 0
3846.26 0 0
3885.11 0 0
3923.96 0 0
3962.82 0 0
4001.67 0 0
4040.52 0 0
4079.37 0 0
4118.22 0 0
4157.07 0 0
4195.92 0 0
4234.77 0 0
4273.62 0 0
4312.48 0 0
4351.33 0 0
4390.18 0 0
4429.03 0 0
4467.88 0 0
4506.73 0 0
4545.58 0 0
4584.43 0 0
4623.28 0 0
4662.14 0 0
4700.99 0 0
4739.84 0 0
4778.69 0 0
4817.54 0 0
4856.39 0 0
0 38.8511 0
38.8511 38.8511 0
77.7023 38.8511 0
116.553 38.8511 0
155.405 38.8511 0
194.256 38.8511 0
233.107 38.8511 0
271.958 38.8511 0
310.809 38.8511 0
349.66 38.8511 0
388.511 38.8511 0
427.362 38.8511 0
466.214 38.8511 0
505.065 38.8511 0
543.916 38.8511 0
582.767 38.8511 0
621.618 38.8511 0
660.469 38.8511 0
699.32 38.8511 0
738.172 38.8511 0
777.023 38.8511 0
815.874 38.8511 0
854.725 38.8511 0
893.576 38.8511 0
932.427 38.8511 0
971.278 38.8511 0
1010.13 38.8511 0
1048.98 38.8511 0
1087.83 38.8511 0
1126.68 38.8511 0
1165.53 38.8511 0
1204.39 38.8511 0
1243.24 38.8511 0
1282.09 38.8511 0
1320.94 38.8511 0
1359.79 38.8511 0
1398.64 38.8511 0
1437.49 38.8511 0
1476.34 38.8511 0
1515.19 38.8511 0
1554.05 38.8511 0
1592.9 38.8511 0
1631.75 38.8511 0
1670.6 38.8511 0
1709.45 38.8511 0
1748.3 38.8511 0
1787.15 38.8511 0
1826 38.8511 0
1864.85 38.8511 0
1903.71 38.8511 0
1942.56 38.8511 0
1981.41 38.8511 0
2020.26 38.8511 0
2059.11 38.8511 0
2097.96 38.8511 0
2136.81 38.8511 0
2175.66 38.8511 0
2214.51 38.8511 0
2253.37 38.8511 0
2292.22 38.8511 0
2331.07 38.8511 0
2369.92 38.8511 0
2408.77 38.8511 0
2447.62 38.8511 0
2486.47 38.8511 0
2525.32 38.8511 0
2564.17 38.8511 0
2603.03 38.8511 0
2641.88 38.8511 0
2680.73 38.8511 0
2719.58 38.8511 0
2758.43 38.8511 0
2797.28 38.8511 0
2836.13 38.8511 0
2874.98 38.8511 0
2913.83 38.8511 0
2952.69 38.8511 0
2991.54 38.8511 0
3030.39 38.8511 0
3069.24 38.8511 0
3108.09 38.8511 0
3146.94 38.8511 0
3185.79 38.8511 0
3224.64 38.8511 0
3263.5 38.8511 0
3302.35 38.8511 0
3341.2 38.8511 0
3380.05 38.8511 0
3418.9 38.8511 0
3457.75 38.8511 0
3496.6 38.8511 0
3535.45 38.8511 0
3574.3 38.8511 0
3613.16 38.8511 0
3652.01 38.8511 0
3690.86 38.8511 0
3729.71 38.8511 0
3768.56 38.8511 0
3807.41 38.8511 0
3846.26 38.8511 0
3885.11 38.8511 0
3923.96 38.8511 0
3962.82 38.8511 0
4001.67 38.8511 0
4040.52 38.8511 0
4079.37 38.8511 0
4118.22 38.8511 0
4157.07 38.8511 0
4195.92 38.8511 0
4234.77 38.8511 0
4273.62 38.8511 0
4312.48 38.8511 0
4351.33 38.8511 0
4390.18 38.8511 0
4429.03 38.8511 0
4467.88 38.8511 0
4506.73 38.8511 0
4545.58 38.8511 0
4584.43 38.8511 0
4623.28 38.8511 0
4662.14 38.8511 0
4700.99 38.8511 0
4739.84 38.8511 0
4778.69 38.8511 0
4817.54 38.8511 0
4856.39 38.8511 0
0 77.7023 0
38.8511 77.7023 0
77.7023 77.7023 0
116.553 77.7023 0
155.405 77.7023 0
194.256 77.7023 0
233.107 77.7023 0
271.958 77.7023 0
310.809 77.7023 0
349.66 77.7023 0
388.511 77.7023 0
427.362 77.7023 0
466.214 77.7023 0
505.065 77.7023 0
543.916 77.7023 0
582.767 77.7023 0
621.618 77.7023 0
660.469 77.7023 0
699.32 77.7023 0
738.172 77.7023 0
777.023 77.7023 0
815.874 77.7023 0
854.725 77.7023 0
893.576 77.7023 0
932.427 77.7023 0
971.278 77.7023 0
1010.13 77.7023 0
1048.98 77.7023 0
1087.83 77.7023 0
1126.68 77.7023 0
1165.53 77.7023 0
1204.39 77.7023 0
1243.24 77.7023 0
1282.09 77.7023 0
1320.94 77.7023 0
1359.79 77.7023 0
1398.64 77.7023 0
1437.49 77.7023 0
1476.34 77.7023 0
1515.19 77.7023 0
1554.05 77.7023 0
1592.9 77.7023 0
1631.75 77.7023 0
1670.6 77.7023 0
1709.45 77.7023 0
1748.3 77.7023 0
1787.15 77.7023 0
1826 77.7023 0
1864.85 77.7023 0
1903.71 77.7023 0
1942.56 77.7023 0
1981.41 77.7023 0
2020.26 77.7023 0
2059.11 77.7023 0
2097.96 77.7023 0
2136.81 77.7023 0
2175.66 77.7023 0
2214.51 77.7023 0
2253.37 77.7023 0
2292.22 77.7023 0
2331.07 77.7023 0
2369.92 77.7023 0
2408.77 77.7023 0
2447.62 77.7023 0
2486.47 77.7023 0
2525.32 77.7023 0
2564.17 77.7023 0
2603.03 77.7023 0
2641.88 77.7023 0
2680.73 77.7023 0
2719.58 77.7023 0
2758.43 77.7023 0
2797.28 77.7023 0
2836.13 77.7023 0
2874.98 77.7023 0
2913.83 77.7023 0
2952.69 77.7023 0
2991.54 77.7023 0
3030.39 77.7023 0
3069.24 77.7023 0
3108.09 77.7023 0
3146.94 77.7023 0
3185.79 77.7023 0
3224.64 77.7023 0
3263.5 77.7023 0
3302.35 77.7023 0
3341.2 77.7023 0
3380.05 77.7023 0
3418.9 77.7023 0
3457.75 77.7023 0
3496.6 77.7023 0
3535.45 77.7023 0
3574.3 77.7023 0
3613.16 77.7023 0
3652.01 77.7023 0
3690.86 77.7023 0
3729.71 77.7023 0
3768.56 77.7023 0
3807.41 77.7023 0
3846.26 77.7023 0
3885.11 77.7023 0
3923.96 77.7023 0
3962.82 77.7023 0
4001.67 77.7023 0
4040.52 77.7023 0
4079.37 77.7023 0
4118.22 77.7023 0
4157.07 77.7023 0
4195.92 77.7023 0
4234.77 77.7023 0
4273.62 77.7023 0
4312.48 77.7023 0
4351.33 77.7023 0
4390.18 77.7023 0
4429.03 77.7023 0
4467.88 77.7023 0
4506.73 77.7023 0
4545.58 77.7023 0
4584.43 77.7023 0
4623.28 77.7023 0
4662.14 77.7023 0
4700.99 77.7023 0
4739.84 77.7023 0
4778.69 77.7023 0
4817.54 77.7023 0
4856.39 77.7023 0
0 116.553 0
38.8511 116.553 0
77.7023 116.553 0
116.553 116.553 0
155.405 116.553 0
194.256 116.553 0
233.107 116.553 0
271.958 116.553 0
310.809 116.553 0
349.66 116.553 0
388.511 116.553 0
427.362 116.553 0
466.214 116.553 0
505.065 116.553 0
543.916 116.553 0
582.767 116.553 0
621.618 116.553 0
660.469 116.553 0
699.32 116.553 0
738.172 116.553 0
777.023 116.553 0
815.874 116.553 0
854.725 116.553 0
893.576 116.553 0
932.427 116.553 0
971.278 116.553 0
1010.13 116.553 0
1048.98 116.553 0
1087.83 116.553 0
1126.68 116.553 0
1165.53 116.553 0
1204.39 116.553 0
1243.24 116.553 0
1282.09 116.553 0
1320.94 116.553 0
1359.79 116.553 0
1398.64 116.553 0
1437.49 116.553 0
1476.34 116.553 0
1515.19 116.553 0
1554.05 116.553 0
1592.9 116.553 0
1631.75 116.553 0
1670.6 116.553 0
1709.45 116.553 0
1748.3 116.553 0
1787.15 116.553 0
1826 116.553 0
1864.85 116.553 0
1903.71 116.553 0
1942.56 116.553 0
1981.41 116.553 0
2020.26 116.553 0
2059.11 116.553 0
2097.96 116.553 0
2136.81 116.553 0
2175.66 116.553 0
2214.51 116.553 0
2253.37 116.553 0
2292.22 116.553 0
2331.07 116.553 0
2369.92 116.553 0
2408.77 116.553 0
2447.62 116.553 0
2486.47 116.553 0
2525.32 116.553 0
2564.17 116.553 0
2603.03 116.553 0
2641.88 116.553 0
2680.73 116.553 0
2719.58 116.553 0
2758.43 116.553 0
2797.28 116.553 0
2836.13 116.553 0
2874.98 116.553 0
2913.83 116.553 0
2952.69 116.553 0
2991.54 116.553 0
3030.39 116.553 0
3069.24 116.553 0
3108.09 116.553 0
3146.94 116.553 0
3185.79 116.553 0
3224.64 116.553 0
3263.5 116.553 0
3302.35 116.553 0
3341.2 116.553 0
3380.05 116.553 0
3418.9 116.553 0
3457.75 116.553 0
3496.6 116.553 0
3535.45 116.553 0
3574.3 116.553 0
3613.16 116.553 0
3652.01 116.553 0
3690.86 116.553 0
3729.71 116.553 0
3768.56 116.553 0
3807.41 116.553 0
3846.26 116.553 0
3885.11 116.553 0
3923.96 116.553 0
3962.82 116.553 0
4001.67 116.553 0
4040.52 116.553 0
4079.37 116.553 0
4118.22 116.553 0
4157.07 116.553 0
4195.92 116.553 0
4234.77 116.553 0
4273.62 116.553 0
4312.48 116.553 0
4351.33 116.553 0
4390.18 116.553 0
4429.03 116.553 0
4467.88 116.553 0
4506.73 116.553 0
4545.58 116.553 0
4584.43 116.553 0
4623.28 116.553 0
4662.14 116.553 0
4700.99 116.553 0
4739.84 116.553 0
4778.69 116.553 0
4817.54 116.553 0
4856.39 116.553 0
0 155.405 0
38.8511 155.405 0
77.7023 155.405 0
116.553 155.405 0
155.405 155.405 0
194.256 155.405 0
233.107 155.405 0
271.958 155.405 0
310.809 155.405 0
349.66 155.405 0
388.511 155.405 0
427.362 155.405 0
466.214 155.405 0
505.065 155.405 0
543.916 155.405 0
582.767 155.405 0
621.618 155.405 0
660.469 155.405 0
699.32 155.405 0
738.172 155.405 0
777.023 155.405 0
815.874 155.405 0
854.725 155.405 0
893.576 155.405 0
932.427 155.405 0
971.278 155.405 0
1010.13 155.405 0
1048.98 155.405 0
1087.83 155.405 0
1126.68 155.405 0
1165.53 155.405 0
1204.39 155.405 0
1243.24 155.405 0
1282.09 155.405 0
1320.94 155.405 0
1359.79 155.405 0
1398.64 155.405 0
1437.49 155.405 0
1476.34 155.405 0
1515.19 155.405 0
1554.05 155.405 0
1592.9 155.405 0
1631.75 155.405 0
1670.6 155.405 0
1709.45 155.405 0
1748.3 155.405 0
1787.15 155.405 0
1826 155.405 0
1864.85 155.405 0
1903.71 155.405 0
1942.56 155.405 0
1981.41 155.405 0
2020.26 155.405 0
2059.11 155.405 0
2097.96 155.405 0
2136.81 155.405 0
2175.66 155.405 0
2214.51 155.405 0
2253.37 155.405 0
2292.22 155.405 0
2331.07 155.405 0
2369.92 155.405 0
2408.77 155.405 0
2447.62 155.405 0
2486.47 155.405 0
2525.32 155.405 0
2564.17 155.405 0
2603.03 155.405 0
2641.88 155.405 0
2680.73 155.405 0
2719.58 155.405 0
2758.43 155.405 0
2797.28 155.405 0
2836.13 155.405 0
2874.98 155.405 0
2913.83 155.405 0
2952.69 155.405 0
2991.54 155.405 0
3030.39 155.405 0
3069.24 155.405 0
3108.09 155.405 0
3146.94 155.405 0
3185.79 155.405 0
3224.64 155.405 0
3263.5 155.405 0
3302.35 155.405 0
3341.2 155.405 0
3380.05 155.405 0
3418.9 155.405 0
3457.75 155.405 0
3496.6 155.405 0
3535.45 155.405 0
[...]
POINT_DATA 31752
SCALARS Density double 
LOOKUP_TABLE default
0.999481
1.00078
0.998977
0.999324
0.999677
0.999672
1.00069
0.999263
1.00078
1.00062
0.997791
0.999493
1.00024
1.00003
1.00059
1.00054
0.999397
0.999436
0.999631
1.00019
1.00159
1.00068
0.999165
1.00141
0.999922
0.998989
0.999733
1.00159
0.999262
1.00044
1.00189
0.999582
0.99985
1.00134
1.00102
1.00045
1.00215
1.0019
1.00172
1.00116
1.00039
1.00199
1.00173
1.00249
1.00318
1.00266
1.00331
1.00261
1.00276
1.00311
1.00275
1.0038
1.00345
1.00336
1.00438
1.00464
1.00485
1.00314
1.00363
1.00527
1.00418
1.0032
1.00466
1.00566
1.00422
1.00453
1.00369
1.00313
1.00438
1.00436
1.00336
1.00407
1.00312
1.00262
1.00367
1.00146
1.00445
1.00355
1.00203
1.00393
1.00338
1.00259
1.00165
1.0018
1.00349
1.00112
1.00079
1.00118
1.00039
1.00029
1.00181
1.00183
1.00051
1.00048
1.00058
1.00134
1.00123
1.00001
1.00027
1.00146
1.00003
1.00052
1.00099
1.00019
1.001
0.998442
1.00063
1.00165
0.999717
0.998937
0.999443
0.999891
0.999631
0.999397
0.998826
1.00151
1.001
0.998952
0.998445
0.999321
1.00053
0.999543
0.999453
0.99887
1.00036
1.00065
1.00062
1.00085
1.00095
1.0006
0.999303
0.999156
1.00046
0.999679
0.999695
1.00041
1.00105
0.999395
0.997931
1.00112
0.998281
0.999446
1.00202
0.999083
0.998388
1.00037
1.00064
1.00048
1.00033
1.00136
0.999968
0.998062
1.00041
1.00203
1.00077
0.998051
0.999404
1.00146
1.00079
1.00044
1.00155
0.999685
1.00063
1.00048
1.00139
1.00155
1.00006
1.00025
1.00273
1.00277
1.00112
1.00132
1.00209
1.00275
1.00185
1.00299
1.00217
1.00121
1.00095
1.00212
1.00125
1.00174
1.00331
1.00302
1.00159
1.00286
1.00432
1.00366
1.00238
1.00405
1.00143
1.00273
1.00235
1.00188
1.00362
1.00354
1.00386
1.00303
1.00273
1.00388
1.00159
1.00118
1.0021
1.0029
1.00223
1.00182
1.00161
1.00141
1.001
1.0012
1.00195
1.00185
0.9996
1.0004
1.00118
1.00088
1.0011
1.00018
0.999112
1.00056
1.00078
1.00066
0.999876
0.99909
1.00106
1.00117
0.998468
0.999733
1.0008
0.998705
0.999076
1.00037
1.00115
1.00004
1.00003
1.0007
1.00011
0.998856
0.999377
1.00112
0.999375
0.999101
1.00099
1.0012
0.997467
1.00007
1.0007
1.00011
1.0006
1.00049
1.00009
1.00098
1.00004
0.999831
0.999372
0.999965
1.00123
1.00112
0.998641
1.00011
0.999901
0.999457
1.00101
1.00009
0.999933
1.0009
1.00016
1.00003
0.99891
1.00044
1.00136
1.00059
0.999437
0.999391
1.00021
1.00046
1.00045
1.00196
0.999576
0.996288
0.998928
1.00223
1.0019
1.00107
1.00019
0.999355
0.998674
0.999733
1.00136
1.00125
1.00064
1.00053
1.00144
1.00034
1.00016
1.00093
1.00125
1.00061
1.00213
1.00219
0.999238
1.00209
1.00212
1.0007
1.00015
1.00087
1.00212
1.00245
1.00075
1.00101
1.00172
1.00182
1.00133
1.00198
1.00152
1.00073
1.00174
1.00217
1.00236
1.00156
1.00121
1.00205
1.00101
1.00122
1.00158
1.00216
1.00135
1.00145
1.00208
1.00278
0.999229
0.999323
1.00072
1.00121
1.00129
1.00203
0.999908
1.00072
0.999093
1.0004
1.00054
1.00021
1.00151
0.999739
1.00141
1.00052
0.99902
1.00113
1.00005
0.999828
1.00045
0.998514
1.00075
1.00055
1.00032
1.00058
0.998648
1.00037
1.00059
0.999307
0.998555
1.00042
1.00017
0.999435
1.00052
0.999484
1.00016
1.00074
0.999278
1.00104
1.00052
1.00119
1.0015
1.00083
0.998968
0.999011
1.00069
1.00108
0.998206
0.999214
0.998627
0.998557
0.99978
0.999429
0.999918
1.00119
1.00022
0.998935
0.999845
1.00158
1.00114
0.998596
0.999318
1.00016
0.998827
1.00134
1.00113
0.999127
0.999745
1.00018
0.998168
1.00055
1.00134
1.00023
1.00019
1.00039
1.00034
1.00099
1.00011
0.999952
0.999563
1.00116
1.00044
1.00033
1.0002
1.00044
1.00219
1.00008
0.998063
1.0008
1.00132
1.00117
1.00047
1.00041
0.999252
1.00141
1.00091
1.00091
1.0025
1.0007
1.00197
1.00283
1.00186
1.00133
1.0013
1.00134
1.00277
1.00239
1.00054
1.00131
1.00177
0.999187
1.00138
1.00302
1.0021
1.00068
0.999882
0.999703
1.00144
1.00297
1.00148
1.00003
1.00089
1.00197
1.00249
1.00074
1.00106
1.00227
1.00056
1.00081
1.00185
1.00119
1.00191
1.00078
0.999856
1.00139
1.00002
1.00137
1.0016
1.00015
1.0008
1.00054
1.0006
1.00103
1.00013
1.00106
0.999491
1.00024
1.00058
1.00069
1.00077
1.00063
0.999869
0.999621
0.99971
1.0011
1.00055
1.00091
1.00033
0.999874
0.999343
1.00001
0.999836
1.00068
0.999575
1.00091
1.00152
1.00044
0.999194
1.00067
1.00004
0.998993
0.999789
1.00078
1.00008
1.001
1.00038
0.999033
1.00087
0.999865
0.999891
1.00027
1.00077
0.99961
1.0009
1.00094
0.999021
0.999263
1.00018
1.00042
1.00118
1.00039
1.0005
0.998643
1.0001
0.998834
0.998853
0.998842
1.00092
1.00102
1.00083
0.99956
1.00094
1.00084
0.999934
0.999075
0.99966
1.00188
0.999606
0.999934
1.00055
1.00008
1.00201
1.00067
1.00088
1.0005
1.00035
1.00098
1.00127
1.00132
0.999608
1.00173
1.0016
0.999523
1.00104
1.00083
1.00247
1.00195
1.00223
1.00133
1.00139
1.00121
1.00045
1.00097
1.00199
1.00158
1.00245
1.00129
1.0011
1.00166
1.00132
1.00211
1.00254
1.00055
1.00142
1.00185
1.00278
1.00122
1.00073
1.00241
1.00104
1.00024
1.00228
1.00036
0.999941
1.00191
1.00205
1.00062
1.00168
1.00106
1.0003
1.00028
1.00157
1.00102
1.00072
1.00066
1.00006
1.00165
1.00058
0.999316
0.999857
0.999518
0.999655
1.00074
0.999865
1.00058
1.00014
1.00053
1.00077
1.00017
1.00158
1.00044
0.998454
0.999021
0.999673
1.00121
1.00046
0.999907
1.00031
0.99866
1.00079
1.00121
0.998732
0.998287
1.00013
1.00024
1.00135
0.998395
0.99936
1.00019
1.00092
1.0013
1.00016
1.00107
1.00174
1.00134
0.998943
0.999442
1.0006
1.00134
0.999638
0.999834
0.999676
0.999656
1.00198
1.00073
0.999095
1.00058
1.00001
0.999463
0.999975
1.00079
0.999962
0.999516
1.00046
1.00157
0.999871
0.998757
1.0012
1.00088
1.00161
1.00056
0.99974
1.00124
1.00035
1.00191
1.00044
1.00109
1.0007
1.00175
1.0019
1.00109
1.00221
1.00097
1.00091
1.00214
1.00205
1.0016
1.00199
1.00118
1.0016
1.00202
1.00151
1.00102
1.00224
1.00197
1.00159
1.00064
1.00173
1.00062
1.00243
1.00217
1.00261
1.00209
1.00177
1.00215
1.00246
1.00253
1.00192
1.00295
1.00177
0.999397
1.00161
1.00213
1.00113
1.00112
1.00223
1.00125
1.00124
1.00123
1.00029
1.00048
1.00203
1.00149
1.00063
1.0006
1.00226
1.00002
1.00084
0.999824
1.0014
1.00001
1.00033
1.00082
1.00143
1.00074
1.00097
0.997312
1.00043
1.00056
1.00071
1.0004
0.999057
0.999873
0.999833
1.00014
1.00151
1.00065
1.00074
1.00039
0.999235
0.99946
1.0009
0.999088
1.00041
0.998003
1.00001
1.00021
0.999643
0.999534
1.00018
1.001
1.00064
1.00052
0.999872
0.998843
0.999738
0.999447
1.00053
1.0009
1.00027
1.00022
0.998675
0.998092
0.99979
1.00037
0.999687
0.999116
1.00048
1.00065
1.00018
0.999829
0.999638
0.998519
1.0001
1.00011
0.999605
0.999362
1.00076
1.0015
0.999504
1.00055
1.00003
0.998578
1.00102
1.00177
0.999165
1.00043
1.00188
0.999738
1.00084
1.00136
1.00061
1.00199
1.0007
1.00076
1.00183
1.00204
0.99934
1.00136
1.00184
0.99997
1.00254
1.00126
1.00098
1.00246
1.00221
1.00216
1.00088
1.00158
1.00147
1.00154
1.00251
1.00221
1.00161
1.00243
1.00298
1.00189
1.00049
1.00173
1.00096
1.0024
1.00228
1.00166
1.00207
1.0011
1.001
1.00232
1.00095
1.0011
1.00219
1.00034
1.00182
1.00231
1.00237
1.00044
1.00182
1.00122
1.00153
1.00121
1.00139
1.00206
1.00154
1.00085
1.00094
1.00153
0.99979
1.00087
1.00133
1.00088
1.00143
1.00103
1.00065
1.00048
1.00061
1.00154
1.00043
1.00005
0.99956
1.00107
0.999909
0.998767
1.00047
1.00144
0.999575
1.0005
1.0009
0.998368
1.00017
1.00038
1.00066
0.998092
1.00016
0.999777
0.998447
1.00084
0.999955
1.00011
0.999462
1.00028
1.00047
1.00116
0.999557
0.997422
1.00053
1.00079
1.00028
0.999523
1.00073
0.998946
0.99925
0.999455
1.00042
1.00041
0.999668
0.998158
0.998374
1.00104
1.00139
0.999408
1.00084
1.00049
1.00111
0.999966
0.999643
0.999938
0.999908
1.00101
1.00031
0.998628
1.00007
1.00164
1.00024
0.999834
1.00115
1.00086
1.00163
0.998636
1.00071
1.00205
1.00123
1.00104
1.00078
1.00218
1.00143
1.00069
1.00123
1.0023
1.00214
1.00108
1.0017
1.00131
1.00166
1.00232
1.0013
1.00247
1.00092
1.00123
1.00258
1.00255
1.00139
1.00158
1.00121
1.00218
1.00109
1.00141
1.00257
1.00103
1.00115
1.0019
1.00265
1.00221
1.00141
1.00178
1.00185
1.00169
1.00215
1.00273
1.00175
1.00231
1.00222
1.00076
1.00232
1.00221
1.0012
1.00267
1.00152
1.00057
1.00082
1.00213
0.999987
1.00083
1.00105
1.00216
1.00135
1.0012
1.00045
0.999733
1.00114
1.0016
0.999783
1.00119
1.00174
1.00003
0.999246
1.00084
1.00152
0.999969
0.998458
0.998945
0.999422
1.00099
1.00026
1.00035
0.998948
1.00018
0.998296
1.00241
1.00003
0.998915
1.00083
0.999138
0.998891
0.999258
0.999063
0.99942
1.00011
1.00109
1.00014
0.998697
0.998107
0.999189
1.00034
1.0008
1.0015
1.00137
0.999207
1.00136
0.999323
0.999047
0.998888
0.999589
1.00092
1.00111
1.00125
1.00164
0.99907
1.00187
1.00096
1.00042
1.00016
1.00011
1.00118
1.00164
1.00044
1.00118
1.00134
0.999613
1.00042
0.999754
1.00014
1.00119
1.00092
1.00123
1.0021
1.00071
1.0015
1.00178
1.00197
1.00209
1.00132
1.00101
1.00216
1.00201
1.00241
1.00188
1.00159
1.00218
1.00245
1.00094
1.00151
1.00184
1.001
1.00233
1.0023
1.0016
1.00189
1.00225
1.0019
1.00233
1.00262
1.00186
1.00199
1.00235
1.0022
1.00205
1.00085
1.0019
1.0018
1.00227
1.00262
1.00195
1.00116
1.00253
1.00148
1.00177
1.002
1.00186
1.00246
1.00213
1.00137
1.00132
1.00212
1.00148
1.00073
1.00007
1.00154
1.0018
1.00093
1.00176
1.00095
1.00011
1.00109
1.00056
1.0007
1.00121
0.999934
0.999273
1.00044
0.999798
1.00116
0.999846
1.00102
0.999305
0.999972
1.0005
1.00019
1.00125
1.00112
0.999554
0.99902
1.00116
1.0012
1.00099
0.999809
1.00096
0.999978
0.999328
0.997747
1.00025
1.00096
0.999113
1.00104
0.999454
1.00088
1.00126
0.999869
0.999924
0.999367
1.00013
0.998527
1.0002
1.00146
1.00118
1.00037
0.998559
1.00062
1.00039
0.999711
1.00078
0.99991
0.999408
1.00078
0.998838
1.00082
1.00062
0.998719
1.00046
1.00204
1.00079
0.999762
1.00166
1.00155
1.00098
1.00032
1.00122
1.00115
1.0017
1.0013
1.00125
1.00055
1.00135
1.00163
1.00152
1.00195
1.00126
1.00133
1.00146
1.0013
1.00205
1.00107
1.00117
1.00197
1.00251
1.00227
1.00233
1.00185
1.00138
1.00274
1.0022
1.00284
1.00245
1.00159
1.00292
1.00161
1.00149
1.00175
1.00259
1.00263
1.00271
1.00232
1.00249
1.00139
1.00266
1.00237
1.00226
1.00182
1.00244
1.00189
1.00141
1.002
1.00251
1.00158
1.00219
1.00155
1.00155
1.0017
1.00094
1.00235
1.00273
1.00148
1.00209
1.00242
1.00177
1.00007
1.00002
1.00107
1.00148
0.999355
1.00084
1.00145
1.00186
1.00035
1.00001
1.00148
1.00062
0.999741
0.999818
1.00036
1.00132
1.00151
1.00048
0.99918
0.99808
1.00135
1.00075
1.00073
1.00003
1.00089
0.998544
1.00127
1.00145
0.999327
1.00011
1.00138
0.999913
0.99976
0.999981
1.00033
1.00054
0.998662
1.00004
1.00088
1.00042
0.999412
0.999844
1.00007
0.999674
1.00088
1.00036
1.00018
1.0007
1.00003
1.00135
1.00053
0.999857
0.998337
0.998376
1.00192
1.00021
0.999298
0.999476
1.00108
1.00133
0.999794
0.999
1.00064
1.00203
0.999523
1.001
1.00127
1.00255
1.00199
1.00048
1.00145
1.00133
0.998845
1.00134
1.00239
1.00158
1.0026
1.00214
1.00153
1.00081
1.00163
1.00297
1.00186
1.00226
1.00209
1.00171
1.00223
1.00269
1.00259
1.00251
1.00156
1.00165
1.00195
1.00172
1.00179
1.00228
1.00275
1.00212
1.00264
1.0029
1.0018
1.00094
1.00264
1.00226
1.0028
1.00203
1.00215
1.00227
1.00289
1.00203
1.00175
1.00268
1.00314
1.00266
1.00121
1.00205
1.00169
1.00196
1.00216
1.00259
1.00095
1.00126
1.00177
1.00187
1.00215
1.0019
1.00084
0.999215
1.00208
1.00192
1.00192
1.00045
1.00167
1.00179
1.00066
1.00137
1.00025
1.00031
0.99949
1.00196
1.00073
1.00051
1.00025
1.00123
1.00006
0.999141
0.999347
0.999918
1.00037
1.00046
1.00045
0.998153
0.999678
0.998865
1.00004
1.00171
1.00174
1.00119
1.00008
1.00034
0.998879
1.00149
0.998649
0.999629
0.999267
0.999907
1.00118
0.999501
0.999231
1.00001
0.998427
1.00003
1.00052
1.00103
0.999988
1.00122
1.00071
1.00104
0.999381
0.998938
1.00035
1.00147
1.00079
1.00114
0.999545
1.00119
1.0003
0.999884
1.00171
1.001
1.00121
1.00002
1.00049
1.00141
1.00196
1.00049
1.00142
1.00158
1.00232
1.00151
1.00245
1.00164
1.00265
1.00226
1.00145
1.0016
1.00218
1.00177
1.00239
1.00261
1.0021
1.0023
1.00211
1.00142
1.00146
1.00251
1.0017
1.00211
1.00175
1.00211
1.003
1.00246
1.00237
1.00179
1.00288
1.00195
1.00214
1.00214
1.00173
1.00216
1.00268
1.00152
1.00212
1.00175
1.00208
1.00221
1.00286
1.00213
1.00203
1.00212
1.0018
1.00179
1.00259
1.00205
1.00127
1.00232
1.00132
1.00116
1.00078
1.00126
1.0018
1.00192
1.00218
1.00152
1.00202
1.00161
1.00014
1.00094
1.00101
1.00091
1.00082
1.00125
1.00027
0.998784
1.00096
1.00148
1.00073
1.00009
1.0003
1.00011
1.00152
1.00048
0.999001
1.00172
1.00029
0.999668
0.999822
0.999237
0.998818
1.00036
0.999226
0.998906
1.00103
1.00103
1.00068
0.99807
0.999945
1.00037
1.00022
0.999762
1.00115
1.00137
0.996942
0.999471
1.00128
0.998649
1.00117
0.999079
1.00104
0.99978
1.00004
0.999203
1.00171
0.99874
0.999825
1.00012
0.999001
1.00045
1.00093
1.00055
1.00005
1.00072
1.00143
1.00104
1.00033
1.00049
1.00199
1.00184
1.00216
1.00102
0.999944
1.00076
1.00277
1.00198
1.00079
1.00244
1.00253
1.0025
1.00091
1.00188
1.00222
1.0022
1.00234
1.00143
1.00154
1.00223
1.00181
1.00205
1.00187
1.00223
1.00258
1.00198
1.00215
1.00244
1.00185
1.00251
1.0024
1.00221
1.0024
1.00174
1.00194
1.00249
1.00224
1.00205
1.00181
1.00206
1.00233
1.0026
1.0018
1.00192
1.00207
1.00229
1.00222
1.00237
1.00161
1.00198
1.00105
1.0023
1.00272
1.0022
1.00189
1.00214
1.00262
1.00139
1.00168
1.00269
1.00186
1.00192
1.00188
1.0023
1.00132
1.00122
1.00179
1.00113
0.999468
1.00146
1.00142
1.00027
1.00147
1.00153
1.00122
0.999697
0.999569
0.999593
0.999873
0.999679
1.00014
1.0002
1.00028
0.999602
1.00006
1.00022
0.998674
1.00134
1.00144
1.00129
0.999534
0.997426
1.00196
1.00114
0.999769
0.996783
1.00008
1.00097
1.00102
1.00019
1.00065
1.0001
0.999117
1.00079
1.00074
1.00018
1.00125
1.00108
0.999439
0.997947
0.999759
0.999043
1.00053
0.998934
0.999184
1.00188
1.00032
0.999406
1.00156
0.99878
1.00053
1.00131
0.999573
1.00175
1.0012
1.00119
1.00182
1.00161
1.00151
1.0023
1.00063
1.00184
1.0014
1.00206
1.00191
1.00136
1.00101
1.0025
1.00162
1.00243
1.00154
1.00251
1.00265
1.00142
1.00195
1.00203
1.0027
1.00248
1.00245
1.00173
1.00164
1.00236
1.00229
1.00221
1.00262
1.00248
1.00206
1.00201
1.00142
1.00199
1.00176
1.00237
1.00203
1.00158
1.00206
1.00259
1.00116
1.00217
1.00275
1.00156
1.00235
1.00227
1.00153
1.00239
1.00166
1.00172
1.00204
1.00274
1.00283
1.00281
1.00166
1.00107
1.00291
1.00222
1.00194
1.00214
1.00232
1.0023
1.00197
1.00227
1.00169
1.00134
1.00201
1.00221
1.0012
1.00012
1.00163
1.00145
1.00098
1.0006
1.001
1.00129
1.0006
1.00057
1.00008
1.0007
1.00125
1.00091
1.00047
0.997944
1.00085
1.00062
1.00017
0.999966
0.999789
0.999711
1.00103
1.00065
1.00064
0.998958
0.998719
1.00157
1.00097
1.00027
1.0001
1.00006
1.00045
0.998382
1.00055
1.00144
0.999882
0.998741
0.997668
1.00131
1.00092
1.00071
0.998787
1.00081
0.998203
1.00064
1.00109
1.00017
1.00091
1.00081
1.00096
1.0012
0.999476
1.00168
1.00171
1.00008
1.0006
1.00217
1.00208
1.00101
1.00208
1.00202
1.00184
1.00272
1.00143
1.00062
1.00275
1.00231
1.00239
1.00135
1.0023
1.00258
1.00177
1.00226
1.0022
1.00269
1.0019
1.00256
1.00269
1.00166
1.00215
1.00213
1.0025
1.00209
1.00201
1.00224
1.0024
1.00223
1.00192
1.00198
1.00204
1.00217
1.00209
1.00222
1.00177
1.002
1.0021
1.0021
1.00239
1.00188
1.00208
1.00184
1.00235
1.00223
1.0026
1.00206
1.00182
1.00184
1.00217
1.00137
1.00225
1.00235
1.00242
1.00235
1.00225
1.00228
1.00207
1.00234
1.0021
1.00222
1.00151
1.00125
1.00177
1.00143
1.00166
1.00239
1.00137
1.00162
1.00097
1.00087
1.00112
1.00229
1.00105
1.0005
1.00139
1.00061
1.001
1.00143
1.00028
1.00142
1.00047
0.999623
1.00099
1.00148
0.997986
0.99835
1.00065
1.0011
1.00066
0.999352
0.997769
1.00018
1.00008
0.99983
1.00116
1.00063
1.00047
1.00023
0.999201
0.998676
1.00081
1.00103
0.999941
1.00027
1.00024
1.00049
0.999896
1.00161
0.999121
1.0007
1.00153
1.00097
1.00084
1.0004
1.0011
1.00215
0.999034
1.0005
1.00217
1.00172
1.00013
1.00104
1.00188
0.998892
1.00098
1.00274
1.00149
1.00129
1.00205
1.00222
1.00119
1.00213
1.00185
1.0019
1.00296
1.00225
1.00227
1.00214
1.00268
1.00248
1.00239
1.00164
1.00245
1.00267
1.00214
1.00194
1.00198
1.00219
1.00189
1.00163
1.00238
1.00226
1.00163
1.00206
1.00258
1.002
1.00166
1.00215
1.00217
1.00214
1.00234
1.00227
1.00224
1.00174
1.00242
1.00244
1.00186
1.00228
1.00189
1.00197
1.0021
1.00222
1.00271
1.00145
1.00262
1.0019
1.00198
1.00205
1.00187
1.00201
1.00272
1.00183
1.00275
1.00211
1.00145
1.00175
1.00291
1.00192
1.00152
1.00191
1.00209
1.0012
1.00147
1.00228
1.00087
1.00162
1.00265
1.00141
1.0005
1.00141
1.001
1.00034
0.999797
1.0008
0.998623
1.00024
0.999785
1.00169
0.999145
1.0003
1.00039
0.999353
1.0012
1.00018
0.999241
0.999556
0.999342
1.00233
1.00141
0.998864
0.997884
1.0006
1.0004
0.999702
1.00036
1.00032
1.00086
0.999453
1.00093
0.999874
1.00002
1.00069
1.00019
0.999421
1.00014
0.999209
1.00168
1.00107
0.999316
1.0009
1.00038
1.00087
1.00112
1.00108
1.00168
1.00035
1.00203
1.00081
1.00011
1.00109
1.00058
1.00059
1.00252
1.00249
1.00157
1.00185
1.00224
1.00183
1.00225
1.00281
1.0007
1.00187
1.00271
1.00186
1.00246
1.00153
1.00255
1.00159
1.00252
1.00176
1.00193
1.00234
1.00175
1.00235
1.00237
1.00219
1.00159
1.0021
1.00183
1.00196
1.00173
1.002
1.00194
1.0014
1.00196
1.00182
1.0018
1.00169
1.00201
1.00213
1.00171
1.00222
1.0021
1.00233
1.00183
1.00191
1.00227
1.00194
1.00237
1.0023
1.00202
1.00179
1.00247
1.0021
1.00153
1.00201
1.00221
1.00178
1.00237
1.00241
1.00256
1.00194
1.00216
1.00147
1.00152
1.00222
1.0027
1.00173
1.00167
1.00194
1.00242
1.00158
1.00105
0.999965
1.0013
1.00098
1.00143
1.00172
1.00237
0.999608
0.998613
1.00156
1.0008
1.00024
1.00163
0.9992
1.00075
1.00088
1.00108
1.00049
0.998421
1.00131
0.999769
1.00035
1.00096
0.999227
0.997926
1.00079
1.00076
1.00015
1.00109
0.999439
0.998688
1.00011
1.00033
1.00052
1.00027
0.99943
1.00063
0.998768
0.999776
1.00004
1.00099
1.00141
0.999637
1.0011
1.00104
0.99971
1.00093
1.00109
1.00141
1.00016
1.00208
1.00156
1.00112
1.00228
1.00146
1.00123
1.00256
1.00251
1.00165
1.0015
1.00167
1.00132
1.00258
1.00207
1.00162
1.00242
1.00218
1.00216
1.00216
1.00208
1.00191
1.00218
1.00177
1.00219
1.00184
1.00238
1.00224
1.00184
1.00226
1.00221
1.00153
1.00173
1.00193
1.00179
1.00204
1.00165
1.00169
1.00207
1.00197
1.00169
1.00207
1.00192
1.0017
1.00168
1.00185
1.00201
1.00206
1.00173
1.00199
1.00214
1.00231
1.00213
1.00167
1.00186
1.00188
1.00184
1.00207
1.00264
1.00266
1.00254
1.00084
1.00213
1.00227
1.002
1.002
1.00248
1.00188
1.00143
1.0025
1.00268
1.00206
1.0026
1.00222
1.00148
1.00132
1.00167
1.00081
1.0015
1.00234
1.00095
1.00095
1.00046
1.00158
1.00184
1.00116
1.00074
1.00097
0.999106
1.00097
1.0015
1.0007
1.00051
0.998993
0.999224
0.998088
1.00068
1.00076
0.998393
1.00021
0.99927
1.00028
1.00029
1
1.00073
1.00027
0.999864
1
1.00092
1.00022
1.00152
1.00001
0.999118
1.00077
1.00133
1.00062
1.00052
1.00119
0.999908
0.999236
1.00056
1.00145
1.00052
1.00079
1.00122
1.00154
1.00035
1.00091
1.00201
1.00158
1.00155
1.00248
1.00195
1.0013
1.00168
1.00207
1.00243
1.0023
1.00211
1.00262
1.00199
1.00276
1.00264
1.00209
1.00187
1.00214
1.00254
1.00148
1.00213
1.00222
1.00211
1.00201
1.00175
1.00205
1.00166
1.00176
1.0019
1.00204
1.00184
1.002
1.00158
1.00206
1.00196
1.00193
1.00202
1.0019
1.0018
1.00191
1.00199
1.00176
1.00184
1.00174
1.00171
1.00183
1.00188
1.00184
1.00186
1.00187
1.00206
1.00201
1.00208
1.00232
1.00217
1.00205
1.00202
1.00198
1.00226
1.00204
1.00245
1.00204
1.00239
1.00208
1.00188
1.0025
1.00212
1.00244
1.0019
1.00141
1.00233
1.00245
1.00255
1.00135
1.00142
1.00152
1.00172
1.00156
1.00223
1.00219
1.00124
0.999149
0.999349
1.00085
1.00031
0.999836
1.00115
1.00076
1.00123
1.00081
1.00043
1.00133
0.999142
0.999798
1.00062
0.998787
0.99843
1.00101
1.00121
1.00028
0.999754
1.00019
0.999527
1.00001
1.00001
0.999517
0.999244
1.00031
1.00174
0.999561
0.99841
1.00125
1.00145
1.00047
1.00105
1.0003
0.998264
1.00084
1.00061
1.00099
1.0012
1.0004
1.00167
1.00189
1.00108
1.00128
1.00232
1.0018
1.00168
1.00268
1.00262
1.00176
1.00164
1.0021
1.00223
1.00217
1.00211
1.00228
1.00243
1.00233
1.00221
1.00203
1.00201
1.00188
1.00239
1.00195
1.00182
1.00225
1.00189
1.00185
1.00169
1.00173
1.00141
1.002
1.00185
1.00201
1.0018
1.00167
1.00188
1.00179
1.00186
1.00188
1.00169
1.00183
1.00163
1.00177
1.00181
1.00164
1.00178
1.00174
1.00164
1.00184
1.0018
1.00145
1.00188
1.00156
1.00186