# vtk DataFile Version 3.0
3D MAGNET output
ASCII
DATASET STRUCTURED_GRID
DIMENSIONS 126 126 2
POINTS 31752 double
0 0 0
38.8511 0 0
77.7023 0 0
116.553 0 0
155.405 0 0
194.256 0 0
233.107 0 0
271.958 0 0
310.809 0 0
349.66 0 0
388.511 0 0
427.362 0 0
466.214 0 0
505.065 0 0
543.916 0 0
582.767 0 0
621.618 0 0
660.469 0 0
699.32 0 0
738.172 0 0
777.023 0 0
815.874 0 0
854.725 0 0
893.576 0 0
932.427 0 0
971.278 0 0
1010.13 0 0
1048.98 0 0
1087.83 0 0
1126.68 0 0
1165.53 0 0
1204.39 0 0
1243.24 0 0
1282.09 0 0
1320.94 0 0
1359.79 0 0
1398.64 0 0
1437.49 0 0
1476.34 0 0
1515.19 0 0
1554.05 0 0
1592.9 0 0
1631.75 0 0
1670.6 0 0
1709.45 0 0
1748.3 0 0
1787.15 0 0
1826 0 0
1864.85 0 0
1903.71 0 0
1942.56 0 0
1981.41 0 0
2020.26 0 0
2059.11 0 0
2097.96 0 0
2136.81 0 0
2175.66 0 0
2214.51 0 0
2253.37 0 0
2292.22 0 0
2331.07 0 0
2369.92 0 0
2408.77 0 0
2447.62 0 0
2486.47 0 0
2525.32 0 0
2564.17 0 0
2603.03 0 0
2641.88 0 0
2680.73 0 0
2719.58 0 0
2758.43 0 0
2797.28 0 0
2836.13 0 0
2874.98 0 0
2913.83 0 0
2952.69 0 0
2991.54 0 0
3030.39 0 0
3069.24 0 0
3108.09 0 0
3146.94 0 0
3185.79 0 0
3224.64 0 0
3263.5 0 0
3302.35 0 0
3341.2 0 0
3380.05 0 0
3418.9 0 0
3457.75 0 0
3496.6 0 0
3535.45 0 0
3574.3 0 0
3613.16 0 0
3652.01 0 0
3690.86 0 0
3729.71 0 0
3768.56 0 0
3807.41 0 0
3846.26 0 0
3885.11 0 0
3923.96 0 0
3962.82 0 0
4001.67 0 0
4040.52 0 0
4079.37 0 0
4118.22 0 0
4157.07 0 0
4195.92 0 0
4234.77 0 0
4273.62 0 0
4312.48 0 0
4351.33 0 0
4390.18 0 0
4429.03 0 0
4467.88 0 0
4506.73 0 0
4545.58 0 0
4584.43 0 0
4623.28 0 0
4662.14 0 0
4700.99 0 0
4739.84 0 0
4778.69 0 0
4817.54 0 0
4856.39 0 0
0 38.8511 0
38.8511 38.8511 0
77.7023 38.8511 0
116.553 38.8511 0
155.405 38.8511 0
194.256 38.8511 0
233.107 38.8511 0
271.958 38.8511 0
310.809 38.8511 0
349.66 38.8511 0
388.511 38.8511 0
427.362 38.8511 0
466.214 38.8511 0
505.065 38.8511 0
543.916 38.8511 0
582.767 38.8511 0
621.618 38.8511 0
660.469 38.8511 0
699.32 38.8511 0
738.172 38.8511 0
777.023 38.8511 0
815.874 38.8511 0
854.725 38.8511 0
893.576 38.8511 0
932.427 38.8511 0
971.278 38.8511 0
1010.13 38.8511 0
1048.98 38.8511 0
1087.83 38.8511 0
1126.68 38.8511 0
1165.53 38.8511 0
1204.39 38.8511 0
1243.24 38.8511 0
1282.09 38.8511 0
1320.94 38.8511 0
1359.79 38.8511 0
1398.64 38.8511 0
1437.49 38.8511 0
1476.34 38.8511 0
1515.19 38.8511 0
1554.05 38.8511 0
1592.9 38.8511 0
1631.75 38.8511 0
1670.6 38.8511 0
1709.45 38.8511 0
1748.3 38.8511 0
1787.15 38.8511 0
1826 38.8511 0
1864.85 38.8511 0
1903.71 38.8511 0
1942.56 38.8511 0
1981.41 38.8511 0
2020.26 38.8511 0
2059.11 38.8511 0
2097.96 38.8511 0
2136.81 38.8511 0
2175.66 38.8511 0
2214.51 38.8511 0
2253.37 38.8511 0
2292.22 38.8511 0
2331.07 38.8511 0
2369.92 38.8511 0
2408.77 38.8511 0
2447.62 38.8511 0
2486.47 38.8511 0
2525.32 38.8511 0
2564.17 38.8511 0
2603.03 38.8511 0
2641.88 38.8511 0
2680.73 38.8511 0
2719.58 38.8511 0
2758.43 38.8511 0
2797.28 38.8511 0
2836.13 38.8511 0
2874.98 38.8511 0
2913.83 38.8511 0
2952.69 38.8511 0
2991.54 38.8511 0
3030.39 38.8511 0
3069.24 38.8511 0
3108.09 38.8511 0
3146.94 38.8511 0
3185.79 38.8511 0
3224.64 38.8511 0
3263.5 38.8511 0
3302.35 38.8511 0
3341.2 38.8511 0
3380.05 38.8511 0
3418.9 38.8511 0
3457.75 38.8511 0
3496.6 38.8511 0
3535.45 38.8511 0
3574.3 38.8511 0
3613.16 38.8511 0
3652.01 38.8511 0
3690.86 38.8511 0
3729.71 38.8511 0
3768.56 38.8511 0
3807.41 38.8511 0
3846.26 38.8511 0
3885.11 38.8511 0
3923.96 38.8511 0
3962.82 38.8511 0
4001.67 38.8511 0
4040.52 38.8511 0
4079.37 38.8511 0
4118.22 38.8511 0
4157.07 38.8511 0
4195.92 38.8511 0
4234.77 38.8511 0
4273.62 38.8511 0
4312.48 38.8511 0
4351.33 38.8511 0
4390.18 38.8511 0
4429.03 38.8511 0
4467.88 38.8511 0
4506.73 38.8511 0
4545.58 38.8511 0
4584.43 38.8511 0
4623.28 38.8511 0
4662.14 38.8511 0
4700.99 38.8511 0
4739.84 38.8511 0
4778.69 38.8511 0
4817.54 38.8511 0
4856.39 38.8511 0
0 77.7023 0
38.8511 77.7023 0
77.7023 77.7023 0
116.553 77.7023 0
155.405 77.7023 0
194.256 77.7023 0
233.107 77.7023 0
271.958 77.7023 0
310.809 77.7023 0
349.66 77.7023 0
388.511 77.7023 0
427.362 77.7023 0
466.214 77.7023 0
505.065 77.7023 0
543.916 77.7023 0
582.767 77.7023 0
621.618 77.7023 0
660.469 77.7023 0
699.32 77.7023 0
738.172 77.7023 0
777.023 77.7023 0
815.874 77.7023 0
854.725 77.7023 0
893.576 77.7023 0
932.427 77.7023 0
971.278 77.7023 0
1010.13 77.7023 0
1048.98 77.7023 0
1087.83 77.7023 0
1126.68 77.7023 0
1165.53 77.7023 0
1204.39 77.7023 0
1243.24 77.7023 0
1282.09 77.7023 0
1320.94 77.7023 0
1359.79 77.7023 0
1398.64 77.7023 0
1437.49 77.7023 0
1476.34 77.7023 0
1515.19 77.7023 0
1554.05 77.7023 0
1592.9 77.7023 0
1631.75 77.7023 0
1670.6 77.7023 0
1709.45 77.7023 0
1748.3 77.7023 0
1787.15 77.7023 0
1826 77.7023 0
1864.85 77.7023 0
1903.71 77.7023 0
1942.56 77.7023 0
1981.41 77.7023 0
2020.26 77.7023 0
2059.11 77.7023 0
2097.96 77.7023 0
2136.81 77.7023 0
2175.66 77.7023 0
2214.51 77.7023 0
2253.37 77.7023 0
2292.22 77.7023 0
2331.07 77.7023 0
2369.92 77.7023 0
2408.77 77.7023 0
2447.62 77.7023 0
2486.47 77.7023 0
2525.32 77.7023 0
2564.17 77.7023 0
2603.03 77.7023 0
2641.88 77.7023 0
2680.73 77.7023 0
2719.58 77.7023 0
2758.43 77.7023 0
2797.28 77.7023 0
2836.13 77.7023 0
2874.98 77.7023 0
2913.83 77.7023 0
2952.69 77.7023 0
2991.54 77.7023 0
3030.39 77.7023 0
3069.24 77.7023 0
3108.09 77.7023 0
3146.94 77.7023 0
3185.79 77.7023 0
3224.64 77.7023 0
3263.5 77.7023 0
3302.35 77.7023 0
3341.2 77.7023 0
3380.05 77.7023 0
3418.9 77.7023 0
3457.75 77.7023 0
3496.6 77.7023 0
3535.45 77.7023 0
3574.3 77.7023 0
3613.16 77.7023 0
3652.01 77.7023 0
3690.86 77.7023 0
3729.71 77.7023 0
3768.56 77.7023 0
3807.41 77.7023 0
3846.26 77.7023 0
3885.11 77.7023 0
3923.96 77.7023 0
3962.82 77.7023 0
4001.67 77.7023 0
4040.52 77.7023 0
4079.37 77.7023 0
4118.22 77.7023 0
4157.07 77.7023 0
4195.92 77.7023 0
4234.77 77.7023 0
4273.62 77.7023 0
4312.48 77.7023 0
4351.33 77.7023 0
4390.18 77.7023 0
4429.03 77.7023 0
4467.88 77.7023 0
4506.73 77.7023 0
4545.58 77.7023 0
4584.43 77.7023 0
4623.28 77.7023 0
4662.14 77.7023 0
4700.99 77.7023 0
4739.84 77.7023 0
4778.69 77.7023 0
4817.54 77.7023 0
4856.39 77.7023 0
0 116.553 0
38.8511 116.553 0
77.7023 116.553 0
116.553 116.553 0
155.405 116.553 0
194.256 116.553 0
233.107 116.553 0
271.958 116.553 0
310.809 116.553 0
349.66 116.553 0
388.511 116.553 0
427.362 116.553 0
466.214 116.553 0
505.065 116.553 0
543.916 116.553 0
582.767 116.553 0
621.618 116.553 0
660.469 116.553 0
699.32 116.553 0
738.172 116.553 0
777.023 116.553 0
815.874 116.553 0
854.725 116.553 0
893.576 116.553 0
932.427 116.553 0
971.278 116.553 0
1010.13 116.553 0
1048.98 116.553 0
1087.83 116.553 0
1126.68 116.553 0
1165.53 116.553 0
1204.39 116.553 0
1243.24 116.553 0
1282.09 116.553 0
1320.94 116.553 0
1359.79 116.553 0
1398.64 116.553 0
1437.49 116.553 0
1476.34 116.553 0
1515.19 116.553 0
1554.05 116.553 0
1592.9 116.553 0
1631.75 116.553 0
1670.6 116.553 0
1709.45 116.553 0
1748.3 116.553 0
1787.15 116.553 0
1826 116.553 0
1864.85 116.553 0
1903.71 116.553 0
1942.56 116.553 0
1981.41 116.553 0
2020.26 116.553 0
2059.11 116.553 0
2097.96 116.553 0
2136.81 116.553 0
2175.66 116.553 0
2214.51 116.553 0
2253.37 116.553 0
2292.22 116.553 0
2331.07 116.553 0
2369.92 116.553 0
2408.77 116.553 0
2447.62 116.553 0
2486.47 116.553 0
2525.32 116.553 0
2564.17 116.553 0
2603.03 116.553 0
2641.88 116.553 0
2680.73 116.553 0
2719.58 116.553 0
2758.43 116.553 0
2797.28 116.553 0
2836.13 116.553 0
2874.98 116.553 0
2913.83 116.553 0
2952.69 116.553 0
2991.54 116.553 0
3030.39 116.553 0
3069.24 116.553 0
3108.09 116.553 0
3146.94 116.553 0
3185.79 116.553 0
3224.64 116.553 0
3263.5 116.553 0
3302.35 116.553 0
3341.2 116.553 0
3380.05 116.553 0
3418.9 116.553 0
3457.75 116.553 0
3496.6 116.553 0
3535.45 116.553 0
3574.3 116.553 0
3613.16 116.553 0
3652.01 116.553 0
3690.86 116.553 0
3729.71 116.553 0
3768.56 116.553 0
3807.41 116.553 0
3846.26 116.553 0
3885.11 116.553 0
3923.96 116.553 0
3962.82 116.553 0
4001.67 116.553 0
4040.52 116.553 0
4079.37 116.553 0
4118.22 116.553 0
4157.07 116.553 0
4195.92 116.553 0
4234.77 116.553 0
4273.62 116.553 0
4312.48 116.553 0
4351.33 116.553 0
4390.18 116.553 0
4429.03 116.553 0
4467.88 116.553 0
4506.73 116.553 0
4545.58 116.553 0
4584.43 116.553 0
4623.28 116.553 0
4662.14 116.553 0
4700.99 116.553 0
4739.84 116.553 0
4778.69 116.553 0
4817.54 116.553 0
4856.39 116.553 0
0 155.405 0
38.8511 155.405 0
77.7023 155.405 0
116.553 155.405 0
155.405 155.405 0
194.256 155.405 0
233.107 155.405 0
271.958 155.405 0
310.809 155.405 0
349.66 155.405 0
388.511 155.405 0
427.362 155.405 0
466.214 155.405 0
505.065 155.405 0
543.916 155.405 0
582.767 155.405 0
621.618 155.405 0
660.469 155.405 0
699.32 155.405 0
738.172 155.405 0
777.023 155.405 0
815.874 155.405 0
854.725 155.405 0
893.576 155.405 0
932.427 155.405 0
971.278 155.405 0
1010.13 155.405 0
1048.98 155.405 0
1087.83 155.405 0
1126.68 155.405 0
1165.53 155.405 0
1204.39 155.405 0
1243.24 155.405 0
1282.09 155.405 0
1320.94 155.405 0
1359.79 155.405 0
1398.64 155.405 0
1437.49 155.405 0
1476.34 155.405 0
1515.19 155.405 0
1554.05 155.405 0
1592.9 155.405 0
1631.75 155.405 0
1670.6 155.405 0
1709.45 155.405 0
1748.3 155.405 0
1787.15 155.405 0
1826 155.405 0
1864.85 155.405 0
1903.71 155.405 0
1942.56 155.405 0
1981.41 155.405 0
2020.26 155.405 0
2059.11 155.405 0
2097.96 155.405 0
2136.81 155.405 0
2175.66 155.405 0
2214.51 155.405 0
2253.37 155.405 0
2292.22 155.405 0
2331.07 155.405 0
2369.92 155.405 0
2408.77 155.405 0
2447.62 155.405 0
2486.47 155.405 0
2525.32 155.405 0
2564.17 155.405 0
2603.03 155.405 0
2641.88 155.405 0
2680.73 155.405 0
2719.58 155.405 0
2758.43 155.405 0
2797.28 155.405 0
2836.13 155.405 0
2874.98 155.405 0
2913.83 155.405 0
2952.69 155.405 0
2991.54 155.405 0
3030.39 155.405 0
3069.24 155.405 0
3108.09 155.405 0
3146.94 155.405 0
3185.79 155.405 0
3224.64 155.405 0
3263.5 155.405 0
3302.35 155.405 0
3341.2 155.405 0
3380.05 155.405 0
3418.9 155.405 0
3457.75 155.405 0
3496.6 155.405 0
3535.45 155.405 0
[...]
POINT_DATA 31752
SCALARS Density double 
LOOKUP_TABLE default
0.999364
1.00095
0.998705
0.999154
0.999638
0.999603
1.00083
0.999099
1.00092
1.00074
0.997302
0.999398
1.00025
1.00007
1.00076
1.00067
0.999277
0.999352
0.999553
1.00028
1.00195
1.0009
0.999076
1.00177
0.999968
0.998929
0.99972
1.00197
0.999224
1.00072
1.00249
0.999705
1.00007
1.00184
1.00148
1.00088
1.00297
1.0027
1.00251
1.00187
1.00099
1.00295
1.00267
1.00367
1.00454
1.00397
1.0048
1.00397
1.00417
1.00471
1.00431
1.00555
1.00518
1.00515
1.00641
1.00672
1.007
1.00502
1.00558
1.00754
1.00625
1.00517
1.00687
1.00801
1.00634
1.00671
1.00572
1.00499
1.00646
1.00643
1.00519
1.00603
1.00486
1.00423
1.00545
1.00275
1.0063
1.0052
1.00329
1.00558
1.00484
1.00388
1.00268
1.00285
1.0048
1.0019
1.00141
1.00183
1.00089
1.00074
1.00256
1.00252
1.00089
1.00086
1.00092
1.00179
1.00168
1.00016
1.00048
1.00185
1.00018
1.00072
1.00133
1.00029
1.00127
0.99818
1.00085
1.00199
0.999652
0.998775
0.999309
0.999866
0.999554
0.999252
0.998604
1.00185
1.00114
0.998721
0.99813
0.999177
1.00065
0.999434
0.999336
0.998599
1.00041
1.00082
1.00073
1.00107
1.00112
1.00062
0.999155
0.998954
1.00058
0.999639
0.999681
1.00049
1.00123
0.999285
0.997503
1.00135
0.997879
0.999323
1.00242
0.998924
0.998111
1.00042
1.00074
1.00068
1.00045
1.00167
1.00006
0.997752
1.00058
1.00248
1.00103
0.99781
0.999395
1.00188
1.00114
1.00067
1.0021
0.999826
1.00105
1.00084
1.00201
1.00221
1.00038
1.00075
1.00374
1.00375
1.00189
1.00216
1.00303
1.00392
1.00286
1.00426
1.0033
1.00217
1.00189
1.00334
1.00232
1.00291
1.00477
1.00448
1.00285
1.00438
1.00601
1.00532
1.00379
1.00571
1.00261
1.00421
1.00373
1.00315
1.00517
1.00509
1.0055
1.00454
1.00411
1.0054
1.00264
1.00221
1.00322
1.00413
1.00331
1.00284
1.00253
1.00222
1.00175
1.00191
1.00276
1.00265
0.999864
1.00086
1.0017
1.00134
1.00158
1.00042
0.999161
1.00086
1.0011
1.00095
0.999988
0.999052
1.00132
1.0015
0.99826
0.999741
1.00096
0.998472
0.998951
1.00043
1.0014
1.00011
1.00008
1.0009
1.00014
0.998623
0.999229
1.00135
0.999235
0.998951
1.00117
1.00145
0.996955
1.00014
1.00079
1.00016
1.00076
1.0006
1.00011
1.00127
1.00004
0.999855
0.99924
0.999944
1.00149
1.00136
0.998367
1.00013
0.999905
0.999345
1.00121
1.00014
0.999927
1.0011
1.00019
1.00009
0.998714
1.00055
1.00166
1.0007
0.999391
0.999278
1.00024
1.00062
1.00059
1.00237
0.999514
0.9956
0.998772
1.00277
1.00241
1.00139
1.00031
0.999385
0.99852
0.99981
1.00183
1.0017
1.00108
1.00088
1.00197
1.00069
1.0005
1.00143
1.00188
1.00113
1.00289
1.00306
0.999538
1.00292
1.00292
1.00131
1.00074
1.00157
1.00305
1.00346
1.00147
1.00177
1.00257
1.00275
1.00216
1.0029
1.00242
1.00148
1.00267
1.00317
1.00338
1.00245
1.00204
1.00297
1.00173
1.00203
1.00242
1.00307
1.00212
1.00225
1.00294
1.00373
0.999507
0.999625
1.0012
1.00183
1.00188
1.00277
1.00021
1.00116
0.999103
1.0007
1.00085
1.00042
1.00207
0.999865
1.00186
1.0008
0.998939
1.00148
1.00014
0.999827
1.00062
0.998273
1.00098
1.00071
1.00044
1.00077
0.998422
1.00044
1.00073
0.999218
0.998206
1.00045
1.00017
0.999327
1.00065
0.999358
1.00018
1.00093
0.999162
1.00133
1.00059
1.00145
1.00185
1.00101
0.998798
0.998764
1.00083
1.00133
0.997787
0.999064
0.998291
0.998233
0.999718
0.999302
0.999891
1.00142
1.00028
0.998788
0.999854
1.00188
1.00134
0.99833
0.999166
1.00021
0.998598
1.00164
1.00134
0.99897
0.999696
1.00027
0.997802
1.00074
1.00165
1.00034
1.00033
1.00056
1.00052
1.00127
1.00023
1.00011
0.999579
1.00156
1.00069
1.00059
1.00045
1.00072
1.00282
1.00036
0.997952
1.00123
1.00188
1.00173
1.00085
1.00088
0.999466
1.00208
1.00149
1.0015
1.00343
1.00129
1.00282
1.00381
1.0027
1.00208
1.00209
1.00209
1.00376
1.00331
1.00125
1.00207
1.00262
0.999624
1.00216
1.00405
1.00299
1.00133
1.00041
1.0002
1.0022
1.00391
1.00224
1.00058
1.00152
1.00273
1.00341
1.00134
1.0017
1.00308
1.00103
1.00133
1.00259
1.00175
1.00261
1.00125
1.00009
1.0019
1.00025
1.00185
1.00215
1.00035
1.00113
1.00082
1.0009
1.0014
1.00025
1.00131
0.999477
1.00041
1.00075
1.0009
1.00098
1.00078
0.999856
0.999603
0.999727
1.0014
1.00071
1.00118
1.0004
0.999838
0.999203
1.00002
0.999773
1.0008
0.999526
1.00118
1.00179
1.00058
0.999057
1.00084
1.00005
0.998817
0.999702
1.00093
1.0001
1.00121
1.00049
0.998848
1.00111
0.999848
0.99985
1.00028
1.00096
0.99954
1.00112
1.00113
0.998835
0.999162
1.00024
1.00052
1.00145
1.00044
1.00068
0.998338
1.00012
0.998507
0.998662
0.998649
1.00116
1.00131
1.0011
0.999449
1.00123
1.00115
1.00003
0.999052
0.999716
1.00236
0.999636
1.00012
1.0009
1.00034
1.00267
1.00104
1.00138
1.0009
1.00067
1.00148
1.00182
1.00189
0.99996
1.00242
1.00222
0.999872
1.00171
1.00139
1.00333
1.00271
1.00312
1.00205
1.0021
1.00188
1.00101
1.00163
1.00285
1.00234
1.00335
1.002
1.00178
1.00247
1.00208
1.00295
1.00347
1.00115
1.00216
1.00261
1.00371
1.00192
1.00134
1.00323
1.00168
1.00072
1.00307
1.00073
1.00034
1.0026
1.00281
1.00111
1.00232
1.00157
1.00065
1.00059
1.00212
1.00145
1.00109
1.00101
1.00029
1.00215
1.00082
0.99933
0.999927
0.999491
0.999658
1.00097
0.999905
1.0008
1.00022
1.00074
1.00099
1.00024
1.00197
1.00057
0.9981
0.998861
0.999606
1.00142
1.0006
0.999878
1.00044
0.998353
1.00095
1.00144
0.998437
0.997968
1.00019
1.00025
1.00162
0.998018
0.99927
1.00027
1.00109
1.00153
1.00023
1.00135
1.00213
1.00164
0.998764
0.999375
1.0007
1.00161
0.999573
0.999856
0.999656
0.99953
1.00236
1.00094
0.998948
1.00075
1.00006
0.999383
1.00001
1.00098
0.999948
0.999511
1.00063
1.00196
0.999952
0.998582
1.00159
1.00121
1.00209
1.00084
0.999866
1.00173
1.00063
1.0025
1.00074
1.00164
1.00116
1.0024
1.00255
1.00167
1.003
1.00152
1.00149
1.00294
1.00283
1.00231
1.0028
1.00185
1.00238
1.00283
1.00225
1.00173
1.0031
1.00275
1.0024
1.00125
1.00256
1.00124
1.00334
1.00303
1.00355
1.00292
1.00264
1.00307
1.0034
1.00349
1.00276
1.0039
1.00256
0.999849
1.00235
1.00289
1.00182
1.00181
1.00311
1.00192
1.00191
1.00186
1.00077
1.00097
1.00277
1.00215
1.00117
1.00101
1.00299
1.00031
1.00129
1.00002
1.00194
1.00023
1.00065
1.00118
1.00192
1.00099
1.00135
0.99689
1.00064
1.00074
1.00097
1.00057
0.998906
0.999929
0.999868
1.00021
1.00185
1.00083
1.00094
1.00055
0.99912
0.999341
1.00107
0.998838
1.00049
0.997597
1.00001
1.0002
0.999615
0.999445
1.00019
1.00123
1.00077
1.0006
0.99987
0.998653
0.999703
0.999355
1.00062
1.00107
1.00035
1.00026
0.998403
0.997705
0.99971
1.00042
0.999626
0.998937
1.00055
1.00076
1.00026
0.999818
0.99963
0.998241
1.00013
1.00013
0.999584
0.999267
1.00094
1.00186
0.999512
1.0008
1.00015
0.998414
1.00137
1.00225
0.999168
1.00066
1.00242
0.999935
1.00125
1.00189
1.00103
1.00268
1.00119
1.00129
1.00249
1.00281
0.999595
1.00198
1.0026
1.0004
1.00343
1.00193
1.00166
1.00334
1.00305
1.00301
1.00154
1.00237
1.00221
1.00232
1.00343
1.0031
1.00241
1.00337
1.00396
1.00276
1.00113
1.00255
1.00163
1.00332
1.00315
1.00246
1.00291
1.0018
1.00166
1.00321
1.00165
1.00177
1.00302
1.00093
1.00263
1.00311
1.0033
1.00096
1.00262
1.00187
1.00225
1.00184
1.00207
1.00281
1.00216
1.00135
1.00144
1.00216
1.00003
1.00134
1.00184
1.00131
1.00197
1.00141
1.00097
1.00076
1.00085
1.00198
1.00061
1.0002
0.999555
1.00134
0.999976
0.998567
1.00063
1.0018
0.999502
1.00063
1.00113
0.99804
1.00025
1.00042
1.00086
0.997653
1.00019
0.999749
0.998058
1.00098
0.999854
1.00017
0.999394
1.00032
1.00058
1.00142
0.999508
0.996924
1.00065
1.00094
1.0004
0.999439
1.00085
0.998681
0.999146
0.999369
1.00051
1.00043
0.999584
0.997775
0.998071
1.00128
1.0017
0.999325
1.00114
1.00058
1.00143
1.00004
0.999607
1.00001
1.00001
1.00134
1.00047
0.998501
1.00028
1.00212
1.0005
1.00004
1.00162
1.00125
1.00224
0.998696
1.00116
1.00274
1.00181
1.00167
1.00135
1.00297
1.00212
1.00128
1.00189
1.00317
1.00298
1.00176
1.00251
1.00205
1.00245
1.00323
1.00201
1.00338
1.00164
1.00202
1.00352
1.00346
1.00214
1.0024
1.00192
1.00305
1.00184
1.00219
1.00351
1.00177
1.00193
1.00277
1.00356
1.00315
1.00222
1.00257
1.00269
1.00254
1.00301
1.0037
1.00259
1.00322
1.0031
1.00143
1.00318
1.00305
1.0019
1.00358
1.00222
1.00115
1.00135
1.00289
1.00035
1.00136
1.00154
1.00286
1.00188
1.00173
1.00078
0.999924
1.00158
1.00208
0.99993
1.0016
1.00225
1.00019
0.999193
1.00109
1.00188
1.00004
0.998231
0.998782
0.999292
1.00119
1.00031
1.00047
0.998724
1.00027
0.997921
1.00288
1.00005
0.998734
1.00099
0.998896
0.99867
0.999076
0.998838
0.9993
1.00011
1.00127
1.00011
0.998362
0.99771
0.99902
1.0004
1.001
1.00182
1.00169
0.99906
1.00171
0.999132
0.998861
0.998658
0.999557
1.00117
1.00141
1.00152
1.00204
0.998979
1.00239
1.00119
1.0006
1.00034
1.00032
1.00153
1.00212
1.00071
1.0016
1.00179
0.99976
1.00071
0.999965
1.00048
1.00167
1.00143
1.00181
1.0028
1.00126
1.00223
1.00252
1.0028
1.00293
1.00199
1.00166
1.00304
1.00284
1.00334
1.00272
1.0024
1.00306
1.00338
1.00167
1.00228
1.00267
1.0017
1.00322
1.00319
1.00242
1.00273
1.00317
1.0028
1.00325
1.00356
1.00275
1.00285
1.00326
1.0031
1.00293
1.00157
1.00275
1.00261
1.0032
1.00355
1.00283
1.0019
1.00346
1.00227
1.00264
1.00286
1.00269
1.00338
1.00299
1.00214
1.00205
1.00293
1.00218
1.00132
1.00051
1.00221
1.00253
1.00143
1.00238
1.00148
1.00045
1.00162
1.00091
1.00109
1.00167
1.00011
0.999319
1.00067
0.999842
1.00151
0.999927
1.00135
0.999202
1.00006
1.00072
1.00029
1.00156
1.0014
0.999489
0.998879
1.00146
1.00149
1.00119
0.999794
1.00117
0.99989
0.999259
0.997283
1.00031
1.00115
0.998918
1.00128
0.999339
1.00106
1.00151
0.99984
0.999951
0.999221
1.00015
0.998203
1.00025
1.00173
1.00142
1.00053
0.998301
1.00077
1.00047
0.99966
1.00103
0.999946
0.999268
1.00105
0.998662
1.00109
1.00084
0.998553
1.00072
1.00256
1.00114
0.99996
1.00219
1.00207
1.00146
1.00065
1.00177
1.00171
1.00234
1.00191
1.00183
1.00106
1.00203
1.00237
1.00223
1.00276
1.00197
1.00204
1.00218
1.002
1.00289
1.00179
1.00193
1.00282
1.00343
1.00316
1.00324
1.00268
1.0022
1.0037
1.00308
1.00382
1.00341
1.00242
1.00391
1.0024
1.00231
1.00259
1.00351
1.00358
1.00366
1.0032
1.00345
1.00223
1.00362
1.00325
1.00318
1.00267
1.00336
1.00276
1.00224
1.00286
1.00346
1.00237
1.00307
1.00235
1.00234
1.00248
1.00167
1.00321
1.00364
1.00221
1.00297
1.00325
1.00251
1.00051
1.00043
1.00158
1.0021
0.999505
1.0013
1.00196
1.0025
1.00066
1.00026
1.00197
1.00084
0.999834
0.999954
1.0006
1.00169
1.00188
1.0006
0.99912
0.997736
1.00167
1.00095
1.00096
1.00003
1.00111
0.998284
1.00155
1.00174
0.999239
1.00013
1.00169
0.999897
0.999741
0.999937
1.00042
1.00072
0.998355
1.00006
1.00102
1.00053
0.999241
0.999822
1.00016
0.999609
1.00111
1.00047
1.00027
1.00088
1.00005
1.00167
1.0007
0.999842
0.99807
0.99809
1.00232
1.00032
0.99931
0.999497
1.0014
1.00172
0.999955
0.999047
1.00094
1.00266
0.999721
1.00154
1.00184
1.00334
1.00269
1.00096
1.00209
1.00198
0.999099
1.00205
1.00327
1.00237
1.00354
1.003
1.00232
1.0015
1.00245
1.00395
1.00271
1.00319
1.00296
1.00256
1.00314
1.00362
1.00351
1.00344
1.00233
1.00248
1.00276
1.00253
1.00264
1.00316
1.00371
1.003
1.00359
1.00383
1.00266
1.00169
1.00357
1.00311
1.00375
1.0029
1.00304
1.00316
1.00387
1.00292
1.00261
1.00367
1.0041
1.00363
1.00196
1.00295
1.00252
1.00285
1.003
1.00354
1.00167
1.00198
1.00254
1.00267
1.00299
1.00267
1.00146
0.999532
1.00286
1.00257
1.0027
1.00089
1.00228
1.00246
1.00105
1.00186
1.00049
1.0006
0.999568
1.0025
1.00099
1.00074
1.00039
1.00156
1.00012
0.999046
0.999272
0.999901
1.00046
1.00057
1.00057
0.997784
0.999656
0.998659
1.00008
1.00205
1.00214
1.00154
1.00013
1.00039
0.998623
1.00185
0.99837
0.999584
0.999106
0.999874
1.00139
0.999411
0.999034
1.00003
0.998124
1.00012
1.00063
1.00124
1.00004
1.00155
1.0009
1.00131
0.999289
0.998831
1.00052
1.00184
1.00109
1.00153
0.999561
1.00164
1.00056
1.00013
1.00231
1.00145
1.00179
1.00036
1.00095
1.00204
1.00268
1.00102
1.00214
1.0023
1.00321
1.00226
1.00338
1.00245
1.0036
1.00314
1.00223
1.00242
1.00308
1.00259
1.00329
1.00353
1.00299
1.00321
1.00297
1.0022
1.00222
1.00339
1.00251
1.00299
1.0026
1.003
1.00394
1.00336
1.00324
1.00259
1.00379
1.00278
1.00301
1.003
1.00255
1.00302
1.00353
1.00231
1.00301
1.00254
1.00295
1.00309
1.00379
1.00299
1.00288
1.00298
1.00263
1.00265
1.00353
1.00294
1.00202
1.00316
1.00208
1.00191
1.00143
1.00199
1.00262
1.00275
1.00304
1.00226
1.0028
1.00232
1.00053
1.0015
1.00151
1.00141
1.00126
1.00173
1.0006
0.998761
1.00135
1.00192
1.00106
1.00028
1.00054
1.00024
1.00192
1.00066
0.998901
1.00212
1.0004
0.999648
0.999806
0.999049
0.998566
1.00044
0.999068
0.998703
1.00131
1.00119
1.00084
0.997689
0.999948
1.00043
1.00028
0.999764
1.00138
1.00165
0.996295
0.999377
1.00154
0.998281
1.00147
0.998881
1.00135
0.999744
1.0001
0.999063
1.00211
0.99849
0.999841
1.00016
0.998925
1.00067
1.00123
1.00083
1.00026
1.00111
1.00194
1.00145
1.0007
1.00096
1.00272
1.00254
1.00296
1.00165
1.00042
1.00136
1.00366
1.00278
1.00144
1.00339
1.00344
1.00344
1.00165
1.00276
1.00309
1.00307
1.00323
1.00226
1.00234
1.00311
1.00264
1.00289
1.00271
1.00311
1.00349
1.00284
1.00299
1.00331
1.00268
1.00339
1.00324
1.00304
1.00326
1.00254
1.00277
1.00336
1.00305
1.00284
1.00263
1.0029
1.00317
1.00346
1.00261
1.00275
1.00292
1.00316
1.00306
1.00327
1.0024
1.00283
1.00177
1.00317
1.00363
1.0031
1.00278
1.00302
1.00356
1.00219
1.00251
1.00367
1.00271
1.0028
1.00267
1.00313
1.00204
1.0019
1.00252
1.00177
0.999766
1.00209
1.002
1.00065
1.00206
1.00209
1.00169
0.999854
0.999675
0.999628
0.999964
0.999743
1.00024
1.0003
1.0004
0.999556
1.00012
1.00036
0.998394
1.00163
1.00176
1.00157
0.999528
0.996919
1.0024
1.00132
0.99977
0.996094
1.0001
1.00117
1.00128
1.00024
1.00078
1.00012
0.998989
1.001
1.00091
1.00028
1.00153
1.00132
0.999358
0.997563
0.999716
0.998844
1.00072
0.998814
0.999092
1.00234
1.00053
0.999465
1.00203
0.998706
1.00085
1.00183
0.999719
1.00238
1.00177
1.00174
1.00254
1.00233
1.00218
1.00316
1.00122
1.00267
1.0021
1.0029
1.00274
1.00214
1.00176
1.00343
1.00243
1.00338
1.00235
1.00343
1.00358
1.00219
1.00284
1.0029
1.00363
1.00334
1.00332
1.00252
1.00242
1.00319
1.00312
1.00306
1.00347
1.00332
1.0029
1.00282
1.00215
1.00279
1.00254
1.00317
1.00282
1.00237
1.00283
1.00342
1.00193
1.00297
1.0036
1.00233
1.00319
1.0031
1.00231
1.00324
1.00245
1.00251
1.0029
1.00364
1.00377
1.00374
1.0025
1.00184
1.00388
1.00307
1.00283
1.00302
1.00322
1.00322
1.00287
1.00316
1.00251
1.00209
1.00281
1.00301
1.00186
1.00058
1.00228
1.00206
1.00152
1.00099
1.00147
1.00181
1.00093
1.00088
1.00026
1.00101
1.00163
1.00118
1.00066
0.997641
1.00109
1.00075
1.00026
0.999956
0.999787
0.99968
1.00126
1.00075
1.0008
0.99884
0.998511
1.00186
1.00115
1.0004
1.00018
1.00005
1.00061
0.998079
1.00065
1.00169
0.999873
0.998488
0.997197
1.00161
1.00111
1.00093
0.998534
1.00103
0.997919
1.00087
1.00137
1.00035
1.00124
1.00117
1.00135
1.0017
0.999641
1.00227
1.00234
1.00044
1.00106
1.00291
1.00286
1.00165
1.00297
1.00286
1.00263
1.00365
1.00224
1.0013
1.00372
1.00321
1.00332
1.00215
1.0032
1.00348
1.00262
1.00315
1.00307
1.00359
1.00274
1.00344
1.00355
1.00245
1.00298
1.00295
1.00336
1.00289
1.00281
1.00306
1.00319
1.00303
1.0027
1.00276
1.00283
1.00292
1.00286
1.00302
1.00253
1.00278
1.00288
1.00287
1.0032
1.00268
1.00288
1.00263
1.00318
1.00303
1.00347
1.00286
1.00264
1.00261
1.00298
1.00211
1.00313
1.0032
1.0033
1.00325
1.00316
1.00316
1.00296
1.00328
1.00299
1.00311
1.00232
1.00198
1.00256
1.00218
1.00245
1.00327
1.00203
1.00238
1.00158
1.00143
1.00169
1.00303
1.00158
1.00087
1.00193
1.00096
1.00143
1.00189
1.00044
1.00189
1.00069
0.999665
1.00127
1.00181
0.997595
0.99811
1.00084
1.00137
1.00074
0.999223
0.997316
1.00023
1.0001
0.999729
1.00139
1.00082
1.00057
1.00028
0.999086
0.998397
1.00094
1.00128
0.999986
1.00041
1.00034
1.00068
0.999893
1.00197
0.998989
1.00095
1.00197
1.0013
1.00115
1.00072
1.00148
1.00275
0.999106
1.00086
1.00285
1.00233
1.00052
1.00157
1.00259
0.999132
1.00162
1.00362
1.00224
1.00208
1.00285
1.00308
1.00191
1.00301
1.00271
1.00275
1.0039
1.00316
1.00318
1.00303
1.0036
1.00335
1.00329
1.00243
1.00332
1.00351
1.00296
1.00277
1.00278
1.00296
1.00266
1.00241
1.00314
1.00302
1.0024
1.00283
1.00335
1.00274
1.00239
1.00291
1.00293
1.00291
1.00314
1.00301
1.00302
1.00251
1.00317
1.00323
1.00265
1.00306
1.00265
1.00277
1.00289
1.00301
1.00356
1.00218
1.00348
1.00269
1.00281
1.00289
1.00269
1.00282
1.00363
1.00265
1.00369
1.00297
1.00229
1.00259
1.00388
1.00277
1.00235
1.00275
1.00296
1.00196
1.00221
1.00311
1.00149
1.00236
1.00349
1.00205
1.00099
1.00199
1.00144
1.00066
0.999936
1.00118
0.998483
1.00049
0.999805
1.0021
0.999058
1.00049
1.00055
0.999265
1.00147
1.00021
0.999078
0.999547
0.999245
1.00279
1.00166
0.998687
0.997468
1.00074
1.00048
0.999682
1.00049
1.00035
1.00111
0.999393
1.00119
0.999875
1.00002
1.00087
1.00031
0.999377
1.00025
0.999138
1.0021
1.00141
0.999317
1.00128
1.00066
1.00128
1.00162
1.00158
1.00233
1.00073
1.00278
1.00131
1.00053
1.00171
1.00118
1.00119
1.00343
1.0034
1.00239
1.00273
1.00314
1.00266
1.00315
1.00376
1.00143
1.00272
1.0036
1.00265
1.00334
1.00229
1.00341
1.00235
1.00336
1.00253
1.00273
1.00312
1.00252
1.00314
1.00314
1.00297
1.00231
1.00285
1.00255
1.00269
1.00245
1.00271
1.00267
1.00211
1.00269
1.00251
1.00252
1.00241
1.00271
1.00287
1.00244
1.00297
1.00283
1.00308
1.00259
1.00268
1.00307
1.00271
1.00316
1.00308
1.00283
1.00255
1.00329
1.00291
1.00232
1.00283
1.00303
1.00261
1.00326
1.0033
1.00349
1.00279
1.00304
1.00224
1.00234
1.00308
1.00364
1.00259
1.00251
1.00278
1.00329
1.00228
1.00169
1.00037
1.00193
1.0015
1.0021
1.00232
1.00306
0.999771
0.998541
1.00205
1.00109
1.00042
1.00215
0.999167
1.00101
1.00109
1.00139
1.00069
0.998108
1.00165
0.99964
1.00042
1.00116
0.999103
0.997519
1.00098
1.00099
1.00019
1.00132
0.999295
0.998434
1.00016
1.00041
1.00069
1.00037
0.999298
1.00085
0.998592
0.999819
1.00016
1.00133
1.00183
0.99976
1.00152
1.00148
0.999941
1.00137
1.00158
1.00208
1.00057
1.00284
1.00228
1.00181
1.0031
1.00224
1.00203
1.00348
1.0034
1.00246
1.00229
1.00247
1.00209
1.00348
1.00291
1.00247
1.00331
1.00301
1.003
1.00297
1.00292
1.00268
1.00297
1.00254
1.003
1.00259
1.00314
1.003
1.00257
1.003
1.00291
1.00227
1.00245
1.00262
1.00248
1.00278
1.00236
1.0024
1.00278
1.00269
1.0024
1.0028
1.00263
1.00241
1.00237
1.00257
1.00272
1.00277
1.00245
1.00271
1.00288
1.00303
1.00289
1.00244
1.00259
1.00265
1.00262
1.00285
1.00346
1.00346
1.0034
1.00158
1.00297
1.0031
1.00282
1.00281
1.00334
1.00275
1.00223
1.00343
1.00363
1.00294
1.00353
1.00312
1.0023
1.00202
1.00245
1.00143
1.00221
1.00316
1.0015
1.00151
1.00088
1.00217
1.00245
1.00164
1.00107
1.00134
0.999117
1.00128
1.00195
1.00095
1.00071
0.998833
0.999145
0.997699
1.00082
1.0009
0.998085
1.00033
0.999064
1.00031
1.00038
1.00004
1.0009
1.00034
0.999876
1.00002
1.00117
1.00033
1.00185
1.00007
0.999051
1.00105
1.00168
1.00087
1.00075
1.0016
1.00008
0.999311
1.0009
1.00196
1.0009
1.0013
1.0018
1.00219
1.00084
1.00153
1.0028
1.0023
1.00233
1.00337
1.00277
1.00208
1.00253
1.00293
1.00334
1.00322
1.00298
1.00355
1.00286
1.00363
1.00349
1.00294
1.00269
1.00293
1.00333
1.00223
1.0029
1.003
1.00284
1.00275
1.00247
1.00276
1.00236
1.00249
1.0026
1.00275
1.00253
1.00271
1.00228
1.00274
1.00264
1.00264
1.00267
1.00257
1.00249
1.00259
1.00266
1.00244
1.00253
1.00241
1.00239
1.00251
1.00258
1.00251
1.00256
1.00259
1.00278
1.00276
1.00285
1.00308
1.00294
1.00282
1.00278
1.00273
1.00305
1.00284
1.00329
1.00286
1.00325
1.00292
1.0027
1.00339
1.00295
1.00333
1.00276
1.00222
1.00325
1.00337
1.0035
1.00213
1.00215
1.00225
1.00245
1.00231
1.00305
1.00293
1.00185
0.999355
0.999479
1.00119
1.00059
1.00003
1.00158
1.00108
1.00161
1.00109
1.00062
1.00169
0.999046
0.999778
1.0008
0.998547
0.998157
1.00125
1.00146
1.00037
0.999758
1.00025
0.999479
1.00005
0.999999
0.999392
0.99914
1.00041
1.00217
0.999532
0.998129
1.00161
1.0018
1.00069
1.00138
1.00057
0.998127
1.00122
1.00096
1.00147
1.00174
1.00083
1.00237
1.00262
1.00174
1.00202
1.00318
1.00262
1.00253
1.00364
1.00357
1.00263
1.00248
1.00294
1.00309
1.00303
1.00294
1.00315
1.0033
1.00317
1.00304
1.00281
1.00281
1.00264
1.00316
1.00268
1.00257
1.003
1.00259
1.00256
1.0024
1.00242
1.00209
1.00271
1.00253
1.00268
1.00246
1.00233
1.00255
1.00245
1.00248
1.00253
1.00235
1.00247
1.00226
1.00242
1.00245
1.00228
1.00242
1.0024
1.00231
1.0025
1.00246
1.0021
1.00256
1.00225
1.00256
1.0028
1.00275