# vtk DataFile Version 3.0
3D MAGNET output
ASCII
DATASET STRUCTURED_GRID
DIMENSIONS 126 126 2
POINTS 31752 double
0 0 0
38.8511 0 0
77.7023 0 0
116.553 0 0
155.405 0 0
194.256 0 0
233.107 0 0
271.958 0 0
310.809 0 0
349.66 0 0
388.511 0 0
427.362 0 0
466.214 0 0
505.065 0 0
543.916 0 0
582.767 0 0
621.618 0 0
660.469 0 0
699.32 0 0
738.172 0 0
777.023 0 0
815.874 0 0
854.725 0 0
893.576 0 0
932.427 0 0
971.278 0 0
1010.13 0 0
1048.98 0 0
1087.83 0 0
1126.68 0 0
1165.53 0 0
1204.39 0 0
1243.24 0 0
1282.09 0 0
1320.94 0 0
1359.79 0 0
1398.64 0 0
1437.49 0 0
1476.34 0 0
1515.19 0 0
1554.05 0 0
1592.9 0 0
1631.75 0 0
1670.6 0 0
1709.45 0 0
1748.3 0 0
1787.15 0 0
1826 0 0
1864.85 0 0
1903.71 0 0
1942.56 0 0
1981.41 0 0
2020.26 0 0
2059.11 0 0
2097.96 0 0
2136.81 0 0
2175.66 0 0
2214.51 0 0
2253.37 0 0
2292.22 0 0
2331.07 0 0
2369.92 0 0
2408.77 0 0
2447.62 0 0
2486.47 0 0
2525.32 0 0
2564.17 0 0
2603.03 0 0
2641.88 0 0
2680.73 0 0
2719.58 0 0
2758.43 0 0
2797.28 0 0
2836.13 0 0
2874.98 0 0
2913.83 0 0
2952.69 0 0
2991.54 0 0
3030.39 0 0
3069.24 0 0
3108.09 0 0
3146.94 0 0
3185.79 0 0
3224.64 0 0
3263.5 0 0
3302.35 0 0
3341.2 0 0
3380.05 0 0
3418.9 0 0
3457.75 0 0
3496.6 0 0
3535.45 0 0
3574.3 0 0
3613.16 0 0
3652.01 0 0
3690.86 0 0
3729.71 0 0
3768.56 0 0
3807.41 0 0
3846.26 0 0
3885.11 0 0
3923.96 0 0
3962.82 0 0
4001.67 0 0
4040.52 0 0
4079.37 0 0
4118.22 0 0
4157.07 0 0
4195.92 0 0
4234.77 0 0
4273.62 0 0
4312.48 0 0
4351.33 0 0
4390.18 0 0
4429.03 0 0
4467.88 0 0
4506.73 0 0
4545.58 0 0
4584.43 0 0
4623.28 0 0
4662.14 0 0
4700.99 0 0
4739.84 0 0
4778.69 0 0
4817.54 0 0
4856.39 0 0
0 38.8511 0
38.8511 38.8511 0
77.7023 38.8511 0
116.553 38.8511 0
155.405 38.8511 0
194.256 38.8511 0
233.107 38.8511 0
271.958 38.8511 0
310.809 38.8511 0
349.66 38.8511 0
388.511 38.8511 0
427.362 38.8511 0
466.214 38.8511 0
505.065 38.8511 0
543.916 38.8511 0
582.767 38.8511 0
621.618 38.8511 0
660.469 38.8511 0
699.32 38.8511 0
738.172 38.8511 0
777.023 38.8511 0
815.874 38.8511 0
854.725 38.8511 0
893.576 38.8511 0
932.427 38.8511 0
971.278 38.8511 0
1010.13 38.8511 0
1048.98 38.8511 0
1087.83 38.8511 0
1126.68 38.8511 0
1165.53 38.8511 0
1204.39 38.8511 0
1243.24 38.8511 0
1282.09 38.8511 0
1320.94 38.8511 0
1359.79 38.8511 0
1398.64 38.8511 0
1437.49 38.8511 0
1476.34 38.8511 0
1515.19 38.8511 0
1554.05 38.8511 0
1592.9 38.8511 0
1631.75 38.8511 0
1670.6 38.8511 0
1709.45 38.8511 0
1748.3 38.8511 0
1787.15 38.8511 0
1826 38.8511 0
1864.85 38.8511 0
1903.71 38.8511 0
1942.56 38.8511 0
1981.41 38.8511 0
2020.26 38.8511 0
2059.11 38.8511 0
2097.96 38.8511 0
2136.81 38.8511 0
2175.66 38.8511 0
2214.51 38.8511 0
2253.37 38.8511 0
2292.22 38.8511 0
2331.07 38.8511 0
2369.92 38.8511 0
2408.77 38.8511 0
2447.62 38.8511 0
2486.47 38.8511 0
2525.32 38.8511 0
2564.17 38.8511 0
2603.03 38.8511 0
2641.88 38.8511 0
2680.73 38.8511 0
2719.58 38.8511 0
2758.43 38.8511 0
2797.28 38.8511 0
2836.13 38.8511 0
2874.98 38.8511 0
2913.83 38.8511 0
2952.69 38.8511 0
2991.54 38.8511 0
3030.39 38.8511 0
3069.24 38.8511 0
3108.09 38.8511 0
3146.94 38.8511 0
3185.79 38.8511 0
3224.64 38.8511 0
3263.5 38.8511 0
3302.35 38.8511 0
3341.2 38.8511 0
3380.05 38.8511 0
3418.9 38.8511 0
3457.75 38.8511 0
3496.6 38.8511 0
3535.45 38.8511 0
3574.3 38.8511 0
3613.16 38.8511 0
3652.01 38.8511 0
3690.86 38.8511 0
3729.71 38.8511 0
3768.56 38.8511 0
3807.41 38.8511 0
3846.26 38.8511 0
3885.11 38.8511 0
3923.96 38.8511 0
3962.82 38.8511 0
4001.67 38.8511 0
4040.52 38.8511 0
4079.37 38.8511 0
4118.22 38.8511 0
4157.07 38.8511 0
4195.92 38.8511 0
4234.77 38.8511 0
4273.62 38.8511 0
4312.48 38.8511 0
4351.33 38.8511 0
4390.18 38.8511 0
4429.03 38.8511 0
4467.88 38.8511 0
4506.73 38.8511 0
4545.58 38.8511 0
4584.43 38.8511 0
4623.28 38.8511 0
4662.14 38.8511 0
4700.99 38.8511 0
4739.84 38.8511 0
4778.69 38.8511 0
4817.54 38.8511 0
4856.39 38.8511 0
0 77.7023 0
38.8511 77.7023 0
77.7023 77.7023 0
116.553 77.7023 0
155.405 77.7023 0
194.256 77.7023 0
233.107 77.7023 0
271.958 77.7023 0
310.809 77.7023 0
349.66 77.7023 0
388.511 77.7023 0
427.362 77.7023 0
466.214 77.7023 0
505.065 77.7023 0
543.916 77.7023 0
582.767 77.7023 0
621.618 77.7023 0
660.469 77.7023 0
699.32 77.7023 0
738.172 77.7023 0
777.023 77.7023 0
815.874 77.7023 0
854.725 77.7023 0
893.576 77.7023 0
932.427 77.7023 0
971.278 77.7023 0
1010.13 77.7023 0
1048.98 77.7023 0
1087.83 77.7023 0
1126.68 77.7023 0
1165.53 77.7023 0
1204.39 77.7023 0
1243.24 77.7023 0
1282.09 77.7023 0
1320.94 77.7023 0
1359.79 77.7023 0
1398.64 77.7023 0
1437.49 77.7023 0
1476.34 77.7023 0
1515.19 77.7023 0
1554.05 77.7023 0
1592.9 77.7023 0
1631.75 77.7023 0
1670.6 77.7023 0
1709.45 77.7023 0
1748.3 77.7023 0
1787.15 77.7023 0
1826 77.7023 0
1864.85 77.7023 0
1903.71 77.7023 0
1942.56 77.7023 0
1981.41 77.7023 0
2020.26 77.7023 0
2059.11 77.7023 0
2097.96 77.7023 0
2136.81 77.7023 0
2175.66 77.7023 0
2214.51 77.7023 0
2253.37 77.7023 0
2292.22 77.7023 0
2331.07 77.7023 0
2369.92 77.7023 0
2408.77 77.7023 0
2447.62 77.7023 0
2486.47 77.7023 0
2525.32 77.7023 0
2564.17 77.7023 0
2603.03 77.7023 0
2641.88 77.7023 0
2680.73 77.7023 0
2719.58 77.7023 0
2758.43 77.7023 0
2797.28 77.7023 0
2836.13 77.7023 0
2874.98 77.7023 0
2913.83 77.7023 0
2952.69 77.7023 0
2991.54 77.7023 0
3030.39 77.7023 0
3069.24 77.7023 0
3108.09 77.7023 0
3146.94 77.7023 0
3185.79 77.7023 0
3224.64 77.7023 0
3263.5 77.7023 0
3302.35 77.7023 0
3341.2 77.7023 0
3380.05 77.7023 0
3418.9 77.7023 0
3457.75 77.7023 0
3496.6 77.7023 0
3535.45 77.7023 0
3574.3 77.7023 0
3613.16 77.7023 0
3652.01 77.7023 0
3690.86 77.7023 0
3729.71 77.7023 0
3768.56 77.7023 0
3807.41 77.7023 0
3846.26 77.7023 0
3885.11 77.7023 0
3923.96 77.7023 0
3962.82 77.7023 0
4001.67 77.7023 0
4040.52 77.7023 0
4079.37 77.7023 0
4118.22 77.7023 0
4157.07 77.7023 0
4195.92 77.7023 0
4234.77 77.7023 0
4273.62 77.7023 0
4312.48 77.7023 0
4351.33 77.7023 0
4390.18 77.7023 0
4429.03 77.7023 0
4467.88 77.7023 0
4506.73 77.7023 0
4545.58 77.7023 0
4584.43 77.7023 0
4623.28 77.7023 0
4662.14 77.7023 0
4700.99 77.7023 0
4739.84 77.7023 0
4778.69 77.7023 0
4817.54 77.7023 0
4856.39 77.7023 0
0 116.553 0
38.8511 116.553 0
77.7023 116.553 0
116.553 116.553 0
155.405 116.553 0
194.256 116.553 0
233.107 116.553 0
271.958 116.553 0
310.809 116.553 0
349.66 116.553 0
388.511 116.553 0
427.362 116.553 0
466.214 116.553 0
505.065 116.553 0
543.916 116.553 0
582.767 116.553 0
621.618 116.553 0
660.469 116.553 0
699.32 116.553 0
738.172 116.553 0
777.023 116.553 0
815.874 116.553 0
854.725 116.553 0
893.576 116.553 0
932.427 116.553 0
971.278 116.553 0
1010.13 116.553 0
1048.98 116.553 0
1087.83 116.553 0
1126.68 116.553 0
1165.53 116.553 0
1204.39 116.553 0
1243.24 116.553 0
1282.09 116.553 0
1320.94 116.553 0
1359.79 116.553 0
1398.64 116.553 0
1437.49 116.553 0
1476.34 116.553 0
1515.19 116.553 0
1554.05 116.553 0
1592.9 116.553 0
1631.75 116.553 0
1670.6 116.553 0
1709.45 116.553 0
1748.3 116.553 0
1787.15 116.553 0
1826 116.553 0
1864.85 116.553 0
1903.71 116.553 0
1942.56 116.553 0
1981.41 116.553 0
2020.26 116.553 0
2059.11 116.553 0
2097.96 116.553 0
2136.81 116.553 0
2175.66 116.553 0
2214.51 116.553 0
2253.37 116.553 0
2292.22 116.553 0
2331.07 116.553 0
2369.92 116.553 0
2408.77 116.553 0
2447.62 116.553 0
2486.47 116.553 0
2525.32 116.553 0
2564.17 116.553 0
2603.03 116.553 0
2641.88 116.553 0
2680.73 116.553 0
2719.58 116.553 0
2758.43 116.553 0
2797.28 116.553 0
2836.13 116.553 0
2874.98 116.553 0
2913.83 116.553 0
2952.69 116.553 0
2991.54 116.553 0
3030.39 116.553 0
3069.24 116.553 0
3108.09 116.553 0
3146.94 116.553 0
3185.79 116.553 0
3224.64 116.553 0
3263.5 116.553 0
3302.35 116.553 0
3341.2 116.553 0
3380.05 116.553 0
3418.9 116.553 0
3457.75 116.553 0
3496.6 116.553 0
3535.45 116.553 0
3574.3 116.553 0
3613.16 116.553 0
3652.01 116.553 0
3690.86 116.553 0
3729.71 116.553 0
3768.56 116.553 0
3807.41 116.553 0
3846.26 116.553 0
3885.11 116.553 0
3923.96 116.553 0
3962.82 116.553 0
4001.67 116.553 0
4040.52 116.553 0
4079.37 116.553 0
4118.22 116.553 0
4157.07 116.553 0
4195.92 116.553 0
4234.77 116.553 0
4273.62 116.553 0
4312.48 116.553 0
4351.33 116.553 0
4390.18 116.553 0
4429.03 116.553 0
4467.88 116.553 0
4506.73 116.553 0
4545.58 116.553 0
4584.43 116.553 0
4623.28 116.553 0
4662.14 116.553 0
4700.99 116.553 0
4739.84 116.553 0
4778.69 116.553 0
4817.54 116.553 0
4856.39 116.553 0
0 155.405 0
38.8511 155.405 0
77.7023 155.405 0
116.553 155.405 0
155.405 155.405 0
194.256 155.405 0
233.107 155.405 0
271.958 155.405 0
310.809 155.405 0
349.66 155.405 0
388.511 155.405 0
427.362 155.405 0
466.214 155.405 0
505.065 155.405 0
543.916 155.405 0
582.767 155.405 0
621.618 155.405 0
660.469 155.405 0
699.32 155.405 0
738.172 155.405 0
777.023 155.405 0
815.874 155.405 0
854.725 155.405 0
893.576 155.405 0
932.427 155.405 0
971.278 155.405 0
1010.13 155.405 0
1048.98 155.405 0
1087.83 155.405 0
1126.68 155.405 0
1165.53 155.405 0
1204.39 155.405 0
1243.24 155.405 0
1282.09 155.405 0
1320.94 155.405 0
1359.79 155.405 0
1398.64 155.405 0
1437.49 155.405 0
1476.34 155.405 0
1515.19 155.405 0
1554.05 155.405 0
1592.9 155.405 0
1631.75 155.405 0
1670.6 155.405 0
1709.45 155.405 0
1748.3 155.405 0
1787.15 155.405 0
1826 155.405 0
1864.85 155.405 0
1903.71 155.405 0
1942.56 155.405 0
1981.41 155.405 0
2020.26 155.405 0
2059.11 155.405 0
2097.96 155.405 0
2136.81 155.405 0
2175.66 155.405 0
2214.51 155.405 0
2253.37 155.405 0
2292.22 155.405 0
2331.07 155.405 0
2369.92 155.405 0
2408.77 155.405 0
2447.62 155.405 0
2486.47 155.405 0
2525.32 155.405 0
2564.17 155.405 0
2603.03 155.405 0
2641.88 155.405 0
2680.73 155.405 0
2719.58 155.405 0
2758.43 155.405 0
2797.28 155.405 0
2836.13 155.405 0
2874.98 155.405 0
2913.83 155.405 0
2952.69 155.405 0
2991.54 155.405 0
3030.39 155.405 0
3069.24 155.405 0
3108.09 155.405 0
3146.94 155.405 0
3185.79 155.405 0
3224.64 155.405 0
3263.5 155.405 0
3302.35 155.405 0
3341.2 155.405 0
3380.05 155.405 0
3418.9 155.405 0
3457.75 155.405 0
3496.6 155.405 0
3535.45 155.405 0
[...]
POINT_DATA 31752
SCALARS Density double 
LOOKUP_TABLE default
0.999812
1.00028
0.999675
0.999775
0.999852
0.999877
1.00026
0.999737
1.00031
1.00023
0.999203
0.999805
1.00012
0.999993
1.00018
1.00019
0.999776
0.999767
0.999867
1.00003
1.00057
1.0002
0.999624
1.00047
0.999932
0.999506
0.999882
1.00057
0.999651
1.00002
1.00056
0.999699
0.999768
1.00035
1.00021
0.999929
1.00054
1.00043
1.00035
1.00009
0.999773
1.00035
1.00023
1.00046
1.00068
1.00044
1.00065
1.00038
1.00044
1.00046
1.0003
1.00073
1.00056
1.00045
1.00081
1.00092
1.00097
1.00027
1.00047
1.0011
1.00067
1.00021
1.00082
1.00125
1.00066
1.00077
1.00044
1.00027
1.00077
1.00077
1.00043
1.00069
1.00037
1.0002
1.00062
0.999834
1.00098
1.00066
1.00016
1.00086
1.0007
1.00043
1.00013
1.00018
1.00088
1.00003
0.999977
1.00016
0.999843
0.999836
1.00041
1.00047
0.999998
0.999969
1.00007
1.00038
1.00032
0.999891
0.999993
1.00049
0.999911
1.00012
1.00028
1.00003
1.00032
0.999376
1.00017
1.00063
0.999906
0.999555
0.99981
0.999965
0.999867
0.999796
0.999545
1.00054
1.00043
0.999626
0.999412
0.99975
1.00019
0.999844
0.999801
0.999611
1.00016
1.00021
1.00024
1.00028
1.00038
1.00032
0.999743
0.999703
1.00015
0.999858
0.999845
1.00016
1.00043
0.999762
0.999226
1.00041
0.999402
0.999805
1.00078
0.999633
0.999349
1.00017
1.00028
1.0001
1.00009
1.0005
0.999912
0.999209
1.0001
1.00075
1.00022
0.999153
0.999708
1.00047
1.00017
1.00008
1.00042
0.999746
1.00003
1.00001
1.00028
1.00036
0.999829
0.999785
1.00071
1.00076
1.00004
1.0001
1.00044
1.00062
1.00025
1.00066
1.00033
0.999964
0.99983
1.00023
0.999891
1.00008
1.00071
1.00054
0.999906
1.0004
1.00107
1.00072
1.00023
1.00094
0.999904
1.00036
1.00024
1.00007
1.00079
1.00076
1.00085
1.00048
1.00044
1.00096
1.0001
0.999875
1.00031
1.00067
1.0004
1.00021
1.0002
1.00017
0.999989
1.00014
1.00046
1.00041
0.999619
0.999893
1.00027
1.00014
1.00024
0.999939
0.999511
1.00009
1.00019
1.00015
0.99986
0.999552
1.00038
1.00039
0.999345
0.99986
1.00032
0.999496
0.999605
1.00016
1.00042
0.999975
0.999987
1.00021
1.00004
0.999575
0.999785
1.00042
0.999777
0.999632
1.00039
1.00045
0.999043
0.999973
1.00031
1.00003
1.00018
1.00018
1.00003
1.00028
1.00002
0.999886
0.999767
1
1.00046
1.0004
0.999489
1.00004
0.999941
0.999799
1.00038
1.00002
0.999968
1.00032
1.00006
0.999963
0.999572
1.00014
1.0005
1.00023
0.999732
0.999766
1.00011
1.00012
1.00013
1.00074
0.999834
0.998559
0.999563
1.00079
1.00063
1.00034
1.00003
0.999647
0.999435
0.99983
1.00039
1.00034
1.00003
1.00005
1.0004
0.999956
0.999871
1.00015
1.00022
0.999963
1.00061
1.00054
0.999405
1.00054
1.00058
0.999957
0.999677
0.999982
1.00047
1.0006
0.999899
1.00003
1.00035
1.00032
1.00013
1.00042
1.00017
0.999868
1.00029
1.00046
1.00055
1.00021
1.00006
1.00045
1.00005
1.00007
1.00026
1.00052
1.00018
1.0002
1.00051
1.00081
0.999422
0.999451
1.00008
1.00021
1.00027
1.00055
0.999756
1.00008
0.999555
1.00002
1.00007
0.999981
1.0004
0.999789
1.00043
1.00008
0.99956
1.00035
0.999976
0.999927
1.00012
0.999404
1.00024
1.00017
1.00009
1.00016
0.99946
1.00015
1.00021
0.999695
0.999507
1.00021
1.00009
0.99978
1.00017
0.999827
1.00007
1.00024
0.999698
1.00033
1.00022
1.00042
1.00052
1.00029
0.999578
0.999668
1.00027
1.00039
0.99937
0.999695
0.999533
0.999485
0.999932
0.999795
0.999981
1.00047
1.00008
0.999538
0.999905
1.00062
1.00046
0.999455
0.999753
1.00005
0.999552
1.00049
1.00045
0.999659
0.999904
1.00003
0.999314
1.00016
1.00048
1.00005
1.00001
1.00007
1.00004
1.00033
0.999985
0.99986
0.999776
1.00032
1.00007
0.999989
0.99993
1.00004
1.00071
0.999848
0.999079
1.00014
1.00031
1.00022
1
0.999892
0.999471
1.00027
1.00007
1.00007
1.00065
0.999948
1.00043
1.0008
1.00039
1.00017
1.00011
1.00018
1.00078
1.00062
0.999765
1.00016
1.00033
0.999253
1.00019
1.00088
1.00049
0.999902
0.999557
0.999479
1.00023
1.00093
1.00024
0.999606
1.00003
1.00052
1.00066
0.999955
1.00011
1.00062
0.999975
1.00006
1.00045
1.00024
1.00051
1.00008
0.999768
1.00037
0.999854
1.00038
1.00044
0.999948
1.0002
1.00009
1.00011
1.00027
0.999987
1.00039
0.999747
0.999991
1.00019
1.0002
1.00025
1.00023
0.999952
0.999812
0.99983
1.00036
1.00017
1.00027
1.00013
0.999967
0.999757
0.999986
0.999965
1.00028
0.999805
1.00027
1.00061
1.00013
0.999671
1.00022
1.00001
0.999597
0.99996
1.00031
1.00004
1.00038
1.00012
0.999627
1.00027
0.999939
0.999981
1.00014
1.00026
0.999842
1.0003
1.00037
0.999624
0.999681
1.00005
1.00015
1.00042
1.00017
1.00012
0.999515
1.00006
0.999648
0.999539
0.999537
1.00031
1.00032
1.00024
0.999876
1.00028
1.00021
0.999901
0.999534
0.999789
1.00065
0.999793
0.999836
1.00005
0.99986
1.00059
1.0001
1.0001
0.999982
0.999974
1.00015
1.00028
1.00029
0.999529
1.00042
1.00043
0.99949
1.00005
1.00004
1.00069
1.00048
1.00053
1.00017
1.00021
1.00016
0.999823
1.00003
1.00041
1.00028
1.00066
1.00016
1.00009
1.00028
1.00013
1.00051
1.00066
0.999852
1.0002
1.00043
1.00081
1.00012
0.999935
1.0007
1.00007
0.999755
1.00065
0.999941
0.999676
1.00052
1.00054
0.999973
1.00042
1.0002
0.999914
0.999937
1.00043
1.00023
1.00012
1.0001
0.999873
1.0005
1.00014
0.999637
0.999885
0.999781
0.999827
1.00023
0.999906
1.00014
1.00002
1.00012
1.00025
1.00004
1.00054
1.00015
0.999458
0.999599
0.99988
1.00048
1.00015
0.999971
1.00007
0.999528
1.00031
1.00047
0.999555
0.99933
1.00002
1.00013
1.00051
0.999441
0.999724
1.00003
1.00037
1.00052
1.00002
1.00034
1.00063
1.00048
0.999571
0.999749
1.00025
1.00051
0.99986
0.999883
0.999836
0.999926
1.00076
1.00022
0.999631
1.00018
0.999974
0.999779
0.999961
1.00028
1
0.999749
1.00012
1.00054
0.999878
0.99949
1.00035
1.00023
1.0005
1.0001
0.999782
1.00029
0.999998
1.00058
1.00002
1.00017
1.00003
1.00046
1.00054
1.00015
1.00058
1.00011
1.00006
1.00055
1.00051
1.00032
1.00046
1.00013
1.00027
1.00047
1.00025
0.999988
1.00056
1.00048
1.00023
0.999881
1.00029
0.999864
1.00062
1.00052
1.00069
1.0005
1.00028
1.00045
1.00062
1.00062
1.00039
1.00088
1.00035
0.999313
1.0003
1.00059
1.00008
1.00007
1.00054
1.00017
1.00016
1.0002
0.999792
0.999895
1.00054
1.00031
0.99993
1.00003
1.00067
0.999799
1.00013
0.999785
1.00035
0.99985
0.999934
1.00017
1.0004
1.00023
1.00023
0.998907
1.00009
1.00018
1.00018
1.00009
0.999628
0.999894
0.999885
1.00003
1.00054
1.0002
1.00024
1.00009
0.99968
0.999809
1.00035
0.999719
1.00016
0.999246
1.00001
1.00012
0.999824
0.99982
1.00009
1.00035
1.00024
1.00021
0.999927
0.999522
0.999885
0.999773
1.00021
1.00036
1.00009
1.00008
0.999504
0.999283
0.999956
1.00016
0.999878
0.999666
1.00021
1.00027
1.00003
0.999919
0.999811
0.999428
1.00004
1.00005
0.999806
0.999737
1.00028
1.00052
0.999736
1.00011
0.999933
0.99938
1.00028
1.00059
0.999568
1.00008
1.00061
0.999718
1.00015
1.00034
1.00002
1.00056
1
1
1.00049
1.00052
0.999465
1.00028
1.00042
0.999665
1.00069
1.00016
1
1.00066
1.00055
1.00052
0.999965
1.00024
1.00023
1.00022
1.00063
1.0005
1.00024
1.00058
1.00087
1.00034
0.999743
1.00029
1.00001
1.00059
1.00056
1.00027
1.00046
1.00006
1.00003
1.00057
0.99995
1.00008
1.00056
0.999713
1.00036
1.00065
1.00056
0.999839
1.00037
1.00016
1.00027
1.00018
1.00022
1.00053
1.00037
1.0001
1.00013
1.00035
0.999727
1.00011
1.00035
1.00016
1.00037
1.00027
1.00011
1.00005
1.00015
1.00049
1.0001
0.999925
0.999779
1.00037
0.999907
0.999505
1.00013
1.00049
0.999837
1.00016
1.0003
0.999386
1.00003
1.00018
1.00019
0.999329
1.00006
0.999898
0.999475
1.00034
1.00006
1.00001
0.999758
1.00012
1.00017
1.00042
0.999796
0.999006
1.00019
1.00032
1.00005
0.999809
1.00031
0.999653
0.999672
0.999771
1.00017
1.00022
0.999895
0.999315
0.999367
1.00038
1.00051
0.999749
1.00022
1.0002
1.00035
0.999928
0.999851
0.999924
0.999879
1.0003
1.00007
0.999383
0.999895
1.00052
0.999944
0.999765
1.00027
1.00018
1.00042
0.99924
1.00005
1.00059
1.00023
1.00008
0.999987
1.00059
1.00025
0.999926
1.00016
1.00058
1.00051
1.00007
1.00028
1.00013
1.00029
1.00053
1.00015
1.00065
0.999917
1.00003
1.00067
1.00068
1.00015
1.00019
1.00011
1.00051
0.999987
1.00014
1.00066
0.999959
0.999976
1.00034
1.00074
1.00044
1.00012
1.00034
1.00035
1.00023
1.0005
1.00073
1.00028
1.00054
1.00052
0.999891
1.00059
1.00055
1.00011
1.00075
1.00029
0.999858
1.00004
1.00058
0.999728
1.00004
1.00021
1.00064
1.00033
1.00025
1.00001
0.999726
1.00028
1.0005
0.999786
1.00033
1.00055
0.999908
0.999651
1.00027
1.00055
0.999939
0.999355
0.999569
0.999807
1.00038
1.0001
1.00009
0.999618
1.00002
0.99939
1.00093
1
0.999554
1.00033
0.999737
0.999578
0.999748
0.999681
0.99978
1.00006
1.00046
1.00009
0.999575
0.999296
0.999699
1.00013
1.00027
1.00056
1.00048
0.99969
1.00045
0.999797
0.999643
0.999587
0.999806
1.0003
1.00036
1.00047
1.00057
0.999571
1.0006
1.00035
1.0001
0.999945
0.999901
1.00037
1.00052
1.00004
1.00032
1.00038
0.999701
1.00002
0.999722
0.99983
1.00029
1.00012
1.00022
1.00062
0.999977
1.00025
1.00039
1.00042
1.00048
1.0002
1.00005
1.00049
1.00045
1.00058
1.00035
1.00022
1.00049
1.00059
0.999911
1.0002
1.00034
0.999977
1.00057
1.00055
1.0002
1.00035
1.00048
1.00028
1.00054
1.00068
1.00027
1.00039
1.00057
1.00048
1.0004
0.999861
1.00035
1.00033
1.0005
1.00068
1.00036
1.00003
1.00064
1.00016
1.00026
1.00042
1.00036
1.00062
1.00049
1.00014
1.00015
1.00054
1.00028
0.999935
0.999711
1.00032
1.00042
1.00014
1.00049
1.00011
0.999813
1.00019
1.00005
1.00009
1.00031
0.999849
0.99959
1.00006
0.999884
1.00036
0.999863
1.00029
0.999728
0.999925
1.00009
1.00004
1.00043
1.00039
0.999817
0.999589
1.00038
1.00042
1.00038
0.999909
1.00036
1.00007
0.999688
0.999157
1.00009
1.00037
0.999681
1.00036
0.999799
1.00034
1.00049
0.999952
0.999933
0.999778
1.00006
0.999465
1.00006
1.00057
1.00044
1.00007
0.999429
1.00022
1.00015
0.999893
1.00023
0.999929
0.999811
1.00021
0.999522
1.00023
1.00018
0.999459
1.00006
1.0007
1.00016
0.999727
1.00049
1.00045
1.00017
0.999938
1.00024
1.0002
1.00043
1.00024
1.00024
0.999915
1.00021
1.0003
1.00028
1.00042
1.00012
1.00018
1.00023
1.00016
1.00045
1.00001
1.00002
1.0004
1.00063
1.00053
1.00054
1.00032
1.00007
1.00074
1.0005
1.00076
1.00055
1.00018
1.00081
1.00023
1.00012
1.00026
1.00067
1.00067
1.00072
1.00057
1.00057
1.00005
1.00068
1.00058
1.00049
1.0003
1.0006
1.00031
1.00008
1.0004
1.00061
1.00023
1.0005
1.0002
1.00022
1.00031
0.999935
1.00061
1.00078
1.00024
1.00045
1.00068
1.00039
0.999701
0.9997
1.0002
1.00034
0.999566
1.00011
1.00039
1.00052
0.999964
0.999822
1.00043
1.00019
0.999806
0.999802
1.00002
1.00043
1.00054
1.00017
0.99961
0.999249
1.00048
1.00025
1.00022
1.00002
1.0003
0.999422
1.00046
1.00055
0.999706
1.00005
1.00051
0.999962
0.999885
1.00003
1.0001
1.00014
0.999525
1
1.00036
1.00014
0.999825
0.999935
0.999962
0.999878
1.00029
1.0001
1.00003
1.00023
1.00001
1.00048
1.00015
0.999944
0.999322
0.999364
1.00074
1.00004
0.999617
0.999717
1.00035
1.00043
0.999775
0.99944
1.00014
1.00062
0.999608
1.00013
1.00025
1.00077
1.00055
0.999907
1.00029
1.00023
0.999191
1.00018
1.00061
1.00023
1.00068
1.0005
1.00021
0.999871
1.00023
1.00086
1.00034
1.00047
1.00044
1.00023
1.00047
1.00072
1.00067
1.00062
1.0002
1.0002
1.0004
1.00026
1.00025
1.00053
1.00072
1.00042
1.00066
1.00085
1.00026
0.999862
1.00069
1.00056
1.00076
1.00039
1.00043
1.00052
1.00079
1.00037
1.00023
1.00066
1.00097
1.00067
1.00005
1.00039
1.00024
1.00035
1.00052
1.00067
0.999939
1.00011
1.00037
1.0004
1.00052
1.00044
0.999965
0.999333
1.00053
1.00056
1.00044
0.999917
1.00045
1.00046
1.00007
1.00037
0.999962
0.999942
0.999682
1.00064
1.00021
1.0001
1.00004
1.00041
0.999993
0.99962
0.999714
0.999979
1.00014
1.00016
1.00015
0.999306
0.999846
0.999554
0.999994
1.00066
1.00061
1.00035
1
1.00014
0.999607
1.00051
0.999499
0.999835
0.999734
0.999981
1.00047
0.999805
0.999748
1
0.999395
0.999941
1.00021
1.0004
0.999954
1.00039
1.00024
1.00035
0.999753
0.999518
1.00007
1.00052
1.00019
1.00032
0.999768
1.00031
0.999975
0.999767
1.00048
1.00021
1.00021
0.999765
0.999929
1.0003
1.00052
0.999865
1.00021
1.0003
1.00057
1.00025
1.0006
1.00024
1.0007
1.00053
1.00016
1.0002
1.00046
1.00031
1.00058
1.00069
1.00041
1.00051
1.00045
1.0001
1.00017
1.00067
1.00025
1.00042
1.00022
1.0004
1.00089
1.00061
1.00056
1.00031
1.00085
1.00036
1.00044
1.00046
1.00025
1.00047
1.00079
1.00015
1.00041
1.00031
1.00041
1.00049
1.00082
1.00045
1.00042
1.00046
1.0003
1.00026
1.00066
1.00039
1.00009
1.00061
1.0001
1.00003
0.999912
1.00011
1.00033
1.0004
1.00052
1.00026
1.00049
1.00033
0.999779
1.00008
1.00017
1.00013
1.00011
1.00033
0.999909
0.999386
1.00024
1.00047
1.00016
0.99991
0.999989
0.999964
1.00051
1.00012
0.99955
1.00061
1.00008
0.999838
0.999923
0.999749
0.999572
1.00014
0.999717
0.99957
1.00032
1.00044
1.00025
0.999262
0.999968
1.00016
1.00008
0.999867
1.00043
1.00052
0.998874
0.999787
1.00048
0.999578
1.00039
0.999666
1.00031
0.999916
0.999968
0.999689
1.00062
0.999533
0.999906
1.00005
0.999532
1.00008
1.00029
1.0001
0.999889
1.00009
1.00039
1.00027
0.999913
0.999907
1.00051
1.00047
1.00055
1.00006
0.999597
0.999943
1.00082
1.00046
0.999915
1.00057
1.00067
1.00063
0.999888
1.0003
1.00053
1.00051
1.00056
1.00008
1.00019
1.0005
1.0003
1.00043
1.00031
1.00049
1.00065
1.00036
1.00048
1.00061
1.0003
1.00065
1.00063
1.00052
1.00061
1.00026
1.00037
1.00064
1.00057
1.00047
1.00028
1.00042
1.00058
1.00071
1.00029
1.00035
1.0004
1.00054
1.00052
1.00056
1.00022
1.00036
0.999956
1.00055
1.00076
1.00046
1.00029
1.00045
1.00068
1.0001
1.00024
1.0007
1.00034
1.00033
1.00041
1.00062
1.00015
1.00014
1.00041
1.00013
0.999497
1.00031
1.00035
0.999864
1.00035
1.0004
1.00032
0.999734
0.999704
0.99978
0.99988
0.99979
1
1.00004
1.00007
0.999835
0.999996
1
0.999519
1.0005
1.00053
1.00047
0.99975
0.99902
1.00071
1.00048
0.999874
0.99882
1.00002
1.00036
1.00034
1.00006
1.00025
1.00004
0.999622
1.00026
1.00026
1.00001
1.00045
1.0004
0.999765
0.999206
0.999915
0.999662
1.00014
0.999531
0.99965
1.00068
1.00002
0.999646
1.00049
0.999432
1.00005
1.00031
0.999688
1.00046
1.00021
1.00024
1.00044
1.00031
1.00031
1.00057
0.999889
1.00035
1.00023
1.00046
1.00039
1.00012
0.999936
1.00062
1.00023
1.00054
1.00016
1.00063
1.0007
1.00012
1.0003
1.00038
1.00072
1.00065
1.00062
1.00027
1.00023
1.00061
1.00056
1.0005
1.00075
1.00067
1.00042
1.00041
1.00015
1.00041
1.0003
1.00064
1.00045
1.00017
1.00049
1.00076
0.999931
1.00052
1.00084
1.00019
1.00059
1.00056
1.00015
1.00061
1.00023
1.00026
1.00039
1.00077
1.0008
1.00078
1.0002
0.999932
1.00082
1.00053
1.00033
1.00046
1.00055
1.00052
1.00035
1.00053
1.00028
1.00014
1.00048
1.00059
1.00014
0.999723
1.00039
1.00033
1.00011
1.00004
1.0002
1.00029
1.00007
1.00008
0.999927
1.00015
1.00039
1.00029
1.00011
0.999141
1.00028
1.00024
1.00003
0.999995
0.99989
0.999868
1.00038
1.00028
1.00022
0.999522
0.999474
1.00063
1.00038
1.00004
0.999985
1.00005
1.00011
0.999367
1.00023
1.00058
0.999945
0.999524
0.999129
1.00046
1.00036
1.00021
0.999564
1.00027
0.999268
1.00018
1.00038
0.999961
1.00024
1.00017
1.00023
1.00027
0.999611
1.00047
1.00044
0.99978
0.999985
1.00062
1.00052
1.00006
1.00043
1.00043
1.0004
1.00077
1.00012
0.999777
1.00074
1.00054
1.00056
1.00007
1.00052
1.00069
1.00024
1.0005
1.00048
1.00075
1.00032
1.00068
1.00078
1.00022
1.00048
1.00048
1.00065
1.00047
1.00042
1.00054
1.00069
1.00056
1.00038
1.00042
1.00046
1.00057
1.00051
1.00057
1.00032
1.00045
1.0005
1.00051
1.00064
1.00035
1.00047
1.00034
1.00061
1.00056
1.00071
1.00045
1.00029
1.00036
1.00052
1.00011
1.00049
1.00059
1.00061
1.00054
1.00048
1.00053
1.0004
1.0005
1.00044
1.0005
1.00017
1.00009
1.00035
1.00018
1.00027
1.00061
1.00025
1.00029
1.00006
1.00004
1.00018
1.00067
1.00016
0.999997
1.00035
1.00007
1.00021
1.00042
1.00004
1.0004
1.00008
0.999775
1.00032
1.00055
0.999243
0.999304
1.00019
1.00039
1.00029
0.999761
0.999161
1.00005
1.00003
0.999998
1.00044
1.00019
1.00018
1.00008
0.999659
0.999514
1.00034
1.00036
0.999931
1.00004
1.00005
1.00011
0.999957
1.00059
0.999644
1.00019
1.00048
1.00027
1.00023
0.999962
1.0003
1.00071
0.999441
1.00001
1.00066
1.00046
0.999784
1.00017
1.00049
0.999221
1.00005
1.00082
1.00022
1.00007
1.00049
1.00053
1.00007
1.00046
1.0003
1.00034
1.00088
1.00048
1.00048
1.00044
1.00071
1.00065
1.00055
1.00022
1.00063
1.00079
1.00049
1.00034
1.00041
1.00058
1.00038
1.00022
1.0007
1.00062
1.00022
1.00048
1.00082
1.00048
1.00029
1.00056
1.00058
1.00055
1.00064
1.00065
1.00058
1.00029
1.00074
1.00069
1.00035
1.00061
1.0004
1.00041
1.00048
1.00057
1.00081
1.00016
1.00073
1.00038
1.00036
1.0004
1.00032
1.00043
1.00076
1.00031
1.00073
1.00045
1.00008
1.00027
1.00083
1.00038
1.00014
1.00037
1.00045
1.00005
1.00022
1.0006
0.999991
1.0003
1.00079
1.00027
0.999894
1.00032
1.00021
0.999954
0.999808
1.00015
0.999394
0.999948
0.999891
1.00061
0.999621
1.00001
1.00009
0.999731
1.00044
1.00009
0.999728
0.999762
0.999722
1.00089
1.00057
0.999524
0.999191
1.00021
1.00016
0.999854
1.00008
1.00016
1.00026
0.999752
1.0003
0.999936
1.00001
1.00023
1.00001
0.999733
0.999994
0.999646
1.00058
1.00032
0.999652
1.0002
1
1.00017
1.00023
1.00021
1.00041
0.999918
1.00053
1.00006
0.999758
1.00011
0.999847
0.999856
1.00067
1.00064
1.0002
1.0003
1.0005
1.00033
1.00049
1.00078
0.999732
1.00031
1.00076
1.00035
1.00061
1.00018
1.0007
1.00022
1.00069
1.00031
1.00038
1.00065
1.0003
1.00065
1.00069
1.00055
1.00025
1.00053
1.00039
1.00047
1.00035
1.00053
1.00047
1.00014
1.00048
1.00044
1.00039
1.00032
1.00053
1.00057
1.00033
1.00061
1.00055
1.00068
1.00036
1.00041
1.00059
1.00042
1.00067
1.00062
1.00042
1.00034
1.00069
1.00047
1.00015
1.00041
1.00054
1.00027
1.00057
1.00059
1.00064
1.00036
1.00046
1.00016
1.00014
1.00053
1.00074
1.00025
1.00023
1.00039
1.00064
1.00033
1.00009
0.999674
1.00023
1.00014
1.00026
1.00047
1.00076
0.999684
0.999328
1.00047
1.00022
1
1.00048
0.999604
1.00021
1.00032
1.00034
1.00011
0.999403
1.00044
0.999989
1.00013
1.00036
0.999681
0.999211
1.00029
1.00022
1.00006
1.0004
0.999818
0.999498
1.00003
1.00012
1.00014
1.00006
0.999815
1.00018
0.999484
0.99986
0.999932
1.00028
1.00045
0.999727
1.00028
1.00024
0.99968
1.00019
1.00024
1.00024
0.999784
1.00055
1.00029
1.00008
1.00062
1.00018
1.00001
1.00068
1.00068
1.00023
1.00016
1.00025
1.00008
1.00067
1.00044
1.00015
1.00058
1.00051
1.00048
1.0005
1.00043
1.0004
1.00055
1.00032
1.00052
1.00037
1.00071
1.00062
1.0004
1.00065
1.00066
1.00019
1.00034
1.0005
1.00042
1.00052
1.00031
1.00033
1.00057
1.0005
1.00034
1.00055
1.00047
1.00034
1.00034
1.00042
1.00055
1.00055
1.00033
1.0005
1.00058
1.0007
1.00055
1.00025
1.00041
1.00038
1.00034
1.00049
1.00079
1.00083
1.00069
0.99977
1.00045
1.00057
1.0004
1.00041
1.00066
1.0003
1.0001
1.00062
1.0007
1.00041
1.00069
1.00049
1.00014
1.00017
1.0003
0.999959
1.00027
1.00064
1.0001
1.00009
0.999942
1.0004
1.00053
1.00027
1.00016
1.00024
0.999527
1.0003
1.00046
1.00018
1.00013
0.999596
0.99965
0.999289
1.00027
1.0003
0.99938
1.00001
0.999783
1.00014
1.00008
0.999979
1.00027
1.00009
0.999917
0.999993
1.00029
1.00003
1.00056
0.999969
0.999582
1.0002
1.00044
1.00014
1.00011
1.00033
0.999833
0.999548
1.00006
1.0004
1.00001
1.00005
1.00022
1.00034
0.999827
1.00001
1.00048
1.0003
1.00024
1.00065
1.00041
1.00006
1.00021
1.00043
1.00058
1.00049
1.00043
1.00067
1.00034
1.00082
1.00076
1.00043
1.00032
1.00052
1.00076
1.00016
1.00053
1.00058
1.00056
1.00049
1.00036
1.00056
1.00032
1.00035
1.00047
1.00056
1.00044
1.00053
1.00028
1.00059
1.00053
1.00048
1.00061
1.00051
1.00042
1.00051
1.00057
1.00042
1.00045
1.00041
1.00037
1.00045
1.00047
1.00046
1.00045
1.00045
1.00055
1.00048
1.0005
1.00066
1.00056
1.00049
1.00047
1.00047
1.0006
1.00045
1.00064
1.00042
1.00059
1.00043
1.00034
1.00064
1.00047
1.00061
1.00032
1.0001
1.00054
1.00061
1.00064
1.00011
1.00021
1.00025
1.00037
1.00025
1.00058
1.00063
1.00021
0.999395
0.999575
1.00022
0.999972
0.999777
1.00029
1.00018
1.00038
1.00022
1.0001
1.00043
0.999624
0.999916
1.00021
0.999542
0.999377
1.00035
1.00046
1.00008
0.999864
1.00007
0.999785
0.999964
1.00002
0.99985
0.99968
1.00009
1.0006
0.999798
0.999379
1.00039
1.00052
1.00009
1.00033
0.999962
0.999193
1.00018
1.00008
1.00018
1.00025
0.999893
1.00037
1.00048
1.00007
1.00011
1.0006
1.00033
1.00023
1.00072
1.00069
1.00024
1.00019
1.00046
1.00051
1.00048
1.00046
1.00051
1.00061
1.00059
1.00052
1.00046
1.00042
1.00039
1.00069
1.00045
1.00037
1.00064
1.00047
1.00042
1.00034
1.00037
1.0002
1.00053
1.00047
1.00058
1.00045