# vtk DataFile Version 3.0
3D MAGNET output
ASCII
DATASET STRUCTURED_GRID
DIMENSIONS 126 126 2
POINTS 31752 double
0 0 0
38.8511 0 0
77.7023 0 0
116.553 0 0
155.405 0 0
194.256 0 0
233.107 0 0
271.958 0 0
310.809 0 0
349.66 0 0
388.511 0 0
427.362 0 0
466.214 0 0
505.065 0 0
543.916 0 0
582.767 0 0
621.618 0 0
660.469 0 0
699.32 0 0
738.172 0 0
777.023 0 0
815.874 0 0
854.725 0 0
893.576 0 0
932.427 0 0
971.278 0 0
1010.13 0 0
1048.98 0 0
1087.83 0 0
1126.68 0 0
1165.53 0 0
1204.39 0 0
1243.24 0 0
1282.09 0 0
1320.94 0 0
1359.79 0 0
1398.64 0 0
1437.49 0 0
1476.34 0 0
1515.19 0 0
1554.05 0 0
1592.9 0 0
1631.75 0 0
1670.6 0 0
1709.45 0 0
1748.3 0 0
1787.15 0 0
1826 0 0
1864.85 0 0
1903.71 0 0
1942.56 0 0
1981.41 0 0
2020.26 0 0
2059.11 0 0
2097.96 0 0
2136.81 0 0
2175.66 0 0
2214.51 0 0
2253.37 0 0
2292.22 0 0
2331.07 0 0
2369.92 0 0
2408.77 0 0
2447.62 0 0
2486.47 0 0
2525.32 0 0
2564.17 0 0
2603.03 0 0
2641.88 0 0
2680.73 0 0
2719.58 0 0
2758.43 0 0
2797.28 0 0
2836.13 0 0
2874.98 0 0
2913.83 0 0
2952.69 0 0
2991.54 0 0
3030.39 0 0
3069.24 0 0
3108.09 0 0
3146.94 0 0
3185.79 0 0
3224.64 0 0
3263.5 0 0
3302.35 0 0
3341.2 0 0
3380.05 0 0
3418.9 0 0
3457.75 0 0
3496.6 0 0
3535.45 0 0
3574.3 0 0
3613.16 0 0
3652.01 0 0
3690.86 0 0
3729.71 0 0
3768.56 0 0
3807.41 0 0
3846.26 0 0
3885.11 0 0
3923.96 0 0
3962.82 0 0
4001.67 0 0
4040.52 0 0
4079.37 0 0
4118.22 0 0
4157.07 0 0
4195.92 0 0
4234.77 0 0
4273.62 0 0
4312.48 0 0
4351.33 0 0
4390.18 0 0
4429.03 0 0
4467.88 0 0
4506.73 0 0
4545.58 0 0
4584.43 0 0
4623.28 0 0
4662.14 0 0
4700.99 0 0
4739.84 0 0
4778.69 0 0
4817.54 0 0
4856.39 0 0
0 38.8511 0
38.8511 38.8511 0
77.7023 38.8511 0
116.553 38.8511 0
155.405 38.8511 0
194.256 38.8511 0
233.107 38.8511 0
271.958 38.8511 0
310.809 38.8511 0
349.66 38.8511 0
388.511 38.8511 0
427.362 38.8511 0
466.214 38.8511 0
505.065 38.8511 0
543.916 38.8511 0
582.767 38.8511 0
621.618 38.8511 0
660.469 38.8511 0
699.32 38.8511 0
738.172 38.8511 0
777.023 38.8511 0
815.874 38.8511 0
854.725 38.8511 0
893.576 38.8511 0
932.427 38.8511 0
971.278 38.8511 0
1010.13 38.8511 0
1048.98 38.8511 0
1087.83 38.8511 0
1126.68 38.8511 0
1165.53 38.8511 0
1204.39 38.8511 0
1243.24 38.8511 0
1282.09 38.8511 0
1320.94 38.8511 0
1359.79 38.8511 0
1398.64 38.8511 0
1437.49 38.8511 0
1476.34 38.8511 0
1515.19 38.8511 0
1554.05 38.8511 0
1592.9 38.8511 0
1631.75 38.8511 0
1670.6 38.8511 0
1709.45 38.8511 0
1748.3 38.8511 0
1787.15 38.8511 0
1826 38.8511 0
1864.85 38.8511 0
1903.71 38.8511 0
1942.56 38.8511 0
1981.41 38.8511 0
2020.26 38.8511 0
2059.11 38.8511 0
2097.96 38.8511 0
2136.81 38.8511 0
2175.66 38.8511 0
2214.51 38.8511 0
2253.37 38.8511 0
2292.22 38.8511 0
2331.07 38.8511 0
2369.92 38.8511 0
2408.77 38.8511 0
2447.62 38.8511 0
2486.47 38.8511 0
2525.32 38.8511 0
2564.17 38.8511 0
2603.03 38.8511 0
2641.88 38.8511 0
2680.73 38.8511 0
2719.58 38.8511 0
2758.43 38.8511 0
2797.28 38.8511 0
2836.13 38.8511 0
2874.98 38.8511 0
2913.83 38.8511 0
2952.69 38.8511 0
2991.54 38.8511 0
3030.39 38.8511 0
3069.24 38.8511 0
3108.09 38.8511 0
3146.94 38.8511 0
3185.79 38.8511 0
3224.64 38.8511 0
3263.5 38.8511 0
3302.35 38.8511 0
3341.2 38.8511 0
3380.05 38.8511 0
3418.9 38.8511 0
3457.75 38.8511 0
3496.6 38.8511 0
3535.45 38.8511 0
3574.3 38.8511 0
3613.16 38.8511 0
3652.01 38.8511 0
3690.86 38.8511 0
3729.71 38.8511 0
3768.56 38.8511 0
3807.41 38.8511 0
3846.26 38.8511 0
3885.11 38.8511 0
3923.96 38.8511 0
3962.82 38.8511 0
4001.67 38.8511 0
4040.52 38.8511 0
4079.37 38.8511 0
4118.22 38.8511 0
4157.07 38.8511 0
4195.92 38.8511 0
4234.77 38.8511 0
4273.62 38.8511 0
4312.48 38.8511 0
4351.33 38.8511 0
4390.18 38.8511 0
4429.03 38.8511 0
4467.88 38.8511 0
4506.73 38.8511 0
4545.58 38.8511 0
4584.43 38.8511 0
4623.28 38.8511 0
4662.14 38.8511 0
4700.99 38.8511 0
4739.84 38.8511 0
4778.69 38.8511 0
4817.54 38.8511 0
4856.39 38.8511 0
0 77.7023 0
38.8511 77.7023 0
77.7023 77.7023 0
116.553 77.7023 0
155.405 77.7023 0
194.256 77.7023 0
233.107 77.7023 0
271.958 77.7023 0
310.809 77.7023 0
349.66 77.7023 0
388.511 77.7023 0
427.362 77.7023 0
466.214 77.7023 0
505.065 77.7023 0
543.916 77.7023 0
582.767 77.7023 0
621.618 77.7023 0
660.469 77.7023 0
699.32 77.7023 0
738.172 77.7023 0
777.023 77.7023 0
815.874 77.7023 0
854.725 77.7023 0
893.576 77.7023 0
932.427 77.7023 0
971.278 77.7023 0
1010.13 77.7023 0
1048.98 77.7023 0
1087.83 77.7023 0
1126.68 77.7023 0
1165.53 77.7023 0
1204.39 77.7023 0
1243.24 77.7023 0
1282.09 77.7023 0
1320.94 77.7023 0
1359.79 77.7023 0
1398.64 77.7023 0
1437.49 77.7023 0
1476.34 77.7023 0
1515.19 77.7023 0
1554.05 77.7023 0
1592.9 77.7023 0
1631.75 77.7023 0
1670.6 77.7023 0
1709.45 77.7023 0
1748.3 77.7023 0
1787.15 77.7023 0
1826 77.7023 0
1864.85 77.7023 0
1903.71 77.7023 0
1942.56 77.7023 0
1981.41 77.7023 0
2020.26 77.7023 0
2059.11 77.7023 0
2097.96 77.7023 0
2136.81 77.7023 0
2175.66 77.7023 0
2214.51 77.7023 0
2253.37 77.7023 0
2292.22 77.7023 0
2331.07 77.7023 0
2369.92 77.7023 0
2408.77 77.7023 0
2447.62 77.7023 0
2486.47 77.7023 0
2525.32 77.7023 0
2564.17 77.7023 0
2603.03 77.7023 0
2641.88 77.7023 0
2680.73 77.7023 0
2719.58 77.7023 0
2758.43 77.7023 0
2797.28 77.7023 0
2836.13 77.7023 0
2874.98 77.7023 0
2913.83 77.7023 0
2952.69 77.7023 0
2991.54 77.7023 0
3030.39 77.7023 0
3069.24 77.7023 0
3108.09 77.7023 0
3146.94 77.7023 0
3185.79 77.7023 0
3224.64 77.7023 0
3263.5 77.7023 0
3302.35 77.7023 0
3341.2 77.7023 0
3380.05 77.7023 0
3418.9 77.7023 0
3457.75 77.7023 0
3496.6 77.7023 0
3535.45 77.7023 0
3574.3 77.7023 0
3613.16 77.7023 0
3652.01 77.7023 0
3690.86 77.7023 0
3729.71 77.7023 0
3768.56 77.7023 0
3807.41 77.7023 0
3846.26 77.7023 0
3885.11 77.7023 0
3923.96 77.7023 0
3962.82 77.7023 0
4001.67 77.7023 0
4040.52 77.7023 0
4079.37 77.7023 0
4118.22 77.7023 0
4157.07 77.7023 0
4195.92 77.7023 0
4234.77 77.7023 0
4273.62 77.7023 0
4312.48 77.7023 0
4351.33 77.7023 0
4390.18 77.7023 0
4429.03 77.7023 0
4467.88 77.7023 0
4506.73 77.7023 0
4545.58 77.7023 0
4584.43 77.7023 0
4623.28 77.7023 0
4662.14 77.7023 0
4700.99 77.7023 0
4739.84 77.7023 0
4778.69 77.7023 0
4817.54 77.7023 0
4856.39 77.7023 0
0 116.553 0
38.8511 116.553 0
77.7023 116.553 0
116.553 116.553 0
155.405 116.553 0
194.256 116.553 0
233.107 116.553 0
271.958 116.553 0
310.809 116.553 0
349.66 116.553 0
388.511 116.553 0
427.362 116.553 0
466.214 116.553 0
505.065 116.553 0
543.916 116.553 0
582.767 116.553 0
621.618 116.553 0
660.469 116.553 0
699.32 116.553 0
738.172 116.553 0
777.023 116.553 0
815.874 116.553 0
854.725 116.553 0
893.576 116.553 0
932.427 116.553 0
971.278 116.553 0
1010.13 116.553 0
1048.98 116.553 0
1087.83 116.553 0
1126.68 116.553 0
1165.53 116.553 0
1204.39 116.553 0
1243.24 116.553 0
1282.09 116.553 0
1320.94 116.553 0
1359.79 116.553 0
1398.64 116.553 0
1437.49 116.553 0
1476.34 116.553 0
1515.19 116.553 0
1554.05 116.553 0
1592.9 116.553 0
1631.75 116.553 0
1670.6 116.553 0
1709.45 116.553 0
1748.3 116.553 0
1787.15 116.553 0
1826 116.553 0
1864.85 116.553 0
1903.71 116.553 0
1942.56 116.553 0
1981.41 116.553 0
2020.26 116.553 0
2059.11 116.553 0
2097.96 116.553 0
2136.81 116.553 0
2175.66 116.553 0
2214.51 116.553 0
2253.37 116.553 0
2292.22 116.553 0
2331.07 116.553 0
2369.92 116.553 0
2408.77 116.553 0
2447.62 116.553 0
2486.47 116.553 0
2525.32 116.553 0
2564.17 116.553 0
2603.03 116.553 0
2641.88 116.553 0
2680.73 116.553 0
2719.58 116.553 0
2758.43 116.553 0
2797.28 116.553 0
2836.13 116.553 0
2874.98 116.553 0
2913.83 116.553 0
2952.69 116.553 0
2991.54 116.553 0
3030.39 116.553 0
3069.24 116.553 0
3108.09 116.553 0
3146.94 116.553 0
3185.79 116.553 0
3224.64 116.553 0
3263.5 116.553 0
3302.35 116.553 0
3341.2 116.553 0
3380.05 116.553 0
3418.9 116.553 0
3457.75 116.553 0
3496.6 116.553 0
3535.45 116.553 0
3574.3 116.553 0
3613.16 116.553 0
3652.01 116.553 0
3690.86 116.553 0
3729.71 116.553 0
3768.56 116.553 0
3807.41 116.553 0
3846.26 116.553 0
3885.11 116.553 0
3923.96 116.553 0
3962.82 116.553 0
4001.67 116.553 0
4040.52 116.553 0
4079.37 116.553 0
4118.22 116.553 0
4157.07 116.553 0
4195.92 116.553 0
4234.77 116.553 0
4273.62 116.553 0
4312.48 116.553 0
4351.33 116.553 0
4390.18 116.553 0
4429.03 116.553 0
4467.88 116.553 0
4506.73 116.553 0
4545.58 116.553 0
4584.43 116.553 0
4623.28 116.553 0
4662.14 116.553 0
4700.99 116.553 0
4739.84 116.553 0
4778.69 116.553 0
4817.54 116.553 0
4856.39 116.553 0
0 155.405 0
38.8511 155.405 0
77.7023 155.405 0
116.553 155.405 0
155.405 155.405 0
194.256 155.405 0
233.107 155.405 0
271.958 155.405 0
310.809 155.405 0
349.66 155.405 0
388.511 155.405 0
427.362 155.405 0
466.214 155.405 0
505.065 155.405 0
543.916 155.405 0
582.767 155.405 0
621.618 155.405 0
660.469 155.405 0
699.32 155.405 0
738.172 155.405 0
777.023 155.405 0
815.874 155.405 0
854.725 155.405 0
893.576 155.405 0
932.427 155.405 0
971.278 155.405 0
1010.13 155.405 0
1048.98 155.405 0
1087.83 155.405 0
1126.68 155.405 0
1165.53 155.405 0
1204.39 155.405 0
1243.24 155.405 0
1282.09 155.405 0
1320.94 155.405 0
1359.79 155.405 0
1398.64 155.405 0
1437.49 155.405 0
1476.34 155.405 0
1515.19 155.405 0
1554.05 155.405 0
1592.9 155.405 0
1631.75 155.405 0
1670.6 155.405 0
1709.45 155.405 0
1748.3 155.405 0
1787.15 155.405 0
1826 155.405 0
1864.85 155.405 0
1903.71 155.405 0
1942.56 155.405 0
1981.41 155.405 0
2020.26 155.405 0
2059.11 155.405 0
2097.96 155.405 0
2136.81 155.405 0
2175.66 155.405 0
2214.51 155.405 0
2253.37 155.405 0
2292.22 155.405 0
2331.07 155.405 0
2369.92 155.405 0
2408.77 155.405 0
2447.62 155.405 0
2486.47 155.405 0
2525.32 155.405 0
2564.17 155.405 0
2603.03 155.405 0
2641.88 155.405 0
2680.73 155.405 0
2719.58 155.405 0
2758.43 155.405 0
2797.28 155.405 0
2836.13 155.405 0
2874.98 155.405 0
2913.83 155.405 0
2952.69 155.405 0
2991.54 155.405 0
3030.39 155.405 0
3069.24 155.405 0
3108.09 155.405 0
3146.94 155.405 0
3185.79 155.405 0
3224.64 155.405 0
3263.5 155.405 0
3302.35 155.405 0
3341.2 155.405 0
3380.05 155.405 0
3418.9 155.405 0
3457.75 155.405 0
3496.6 155.405 0
3535.45 155.405 0
[...]
POINT_DATA 31752
SCALARS Density double 
LOOKUP_TABLE default
0.99954
1.00069
0.999109
0.999407
0.999701
0.999707
1.00062
0.999346
1.0007
1.00055
0.998038
0.999545
1.00022
1.00002
1.00051
1.00048
0.99946
0.999485
0.999672
1.00015
1.00141
1.00059
0.999225
1.00123
0.99991
0.999046
0.999749
1.0014
0.999304
1.00032
1.00162
0.999557
0.999784
1.00112
1.00083
1.00029
1.0018
1.00157
1.0014
1.00088
1.00017
1.00159
1.00135
1.002
1.0026
1.00212
1.00269
1.00205
1.00219
1.00246
1.00212
1.00308
1.00275
1.00264
1.00354
1.00377
1.00395
1.0024
1.00284
1.00431
1.00332
1.00241
1.00374
1.00466
1.00335
1.00363
1.00287
1.00239
1.00352
1.0035
1.00262
1.00325
1.00243
1.00199
1.00293
1.00097
1.00366
1.00286
1.00154
1.00323
1.00276
1.00207
1.00125
1.00138
1.00292
1.00082
1.00055
1.00092
1.0002
1.00013
1.00149
1.00153
1.00036
1.00033
1.00045
1.00114
1.00104
0.999953
1.00019
1.00128
0.999982
1.00043
1.00085
1.00015
1.00087
0.998589
1.00053
1.00148
0.999751
0.99903
0.99951
0.999904
0.999671
0.99947
0.998945
1.00134
1.00092
0.99907
0.998608
0.999394
1.00047
0.999597
0.999513
0.999004
1.00033
1.00057
1.00056
1.00075
1.00086
1.00058
0.999379
0.999255
1.0004
0.999703
0.99971
1.00037
1.00096
0.999455
0.998151
1.001
0.998482
0.999509
1.00181
0.999171
0.998539
1.00034
1.00059
1.00039
1.00028
1.00121
0.999937
0.998238
1.00034
1.0018
1.00066
0.998204
0.999432
1.00126
1.00065
1.00035
1.00131
0.999651
1.00046
1.00034
1.00113
1.00128
0.999951
1.00008
1.00229
1.00234
1.00083
1.001
1.00171
1.00226
1.00144
1.00246
1.00171
1.00085
1.0006
1.00163
1.00085
1.00128
1.00271
1.00242
1.0011
1.00225
1.00359
1.00296
1.00182
1.00334
1.00098
1.00213
1.0018
1.00138
1.00296
1.0029
1.00317
1.00241
1.00217
1.00323
1.00118
1.00079
1.00165
1.00239
1.00178
1.00141
1.00125
1.00109
1.00071
1.00092
1.00161
1.00152
0.999529
1.00024
1.00097
1.00069
1.0009
1.0001
0.999131
1.00045
1.00064
1.00055
0.999844
0.999137
1.00093
1.00102
0.998594
0.999741
1.00072
0.998832
0.999153
1.00033
1.00102
1.00002
1.00002
1.0006
1.0001
0.998977
0.99945
1.001
0.999446
0.999183
1.00089
1.00107
0.997733
1.00004
1.00065
1.0001
1.00052
1.00044
1.00008
1.00084
1.00004
0.999828
0.999439
0.999973
1.0011
1.00099
0.998784
1.0001
0.999902
0.999515
1.0009
1.00008
0.999937
1.0008
1.00014
1.00001
0.999017
1.00038
1.00121
1.00053
0.999473
0.999452
1.0002
1.00038
1.00039
1.00175
0.999615
0.996658
0.999022
1.00197
1.00166
1.00093
1.00015
0.999371
0.998778
0.999721
1.00115
1.00105
1.00048
1.0004
1.00122
1.00022
1.00005
1.00073
1.001
1.00041
1.00181
1.00182
0.999171
1.00174
1.00178
1.00047
0.999955
1.00061
1.00173
1.00203
1.00048
1.00073
1.00139
1.00145
1.001
1.0016
1.00116
1.00046
1.00138
1.00176
1.00194
1.00121
1.00089
1.00167
1.00074
1.00091
1.00125
1.00179
1.00105
1.00113
1.00173
1.00237
0.999169
0.999252
1.00054
1.00097
1.00105
1.00171
0.999815
1.00055
0.99913
1.0003
1.00041
1.00013
1.00127
0.999709
1.00121
1.00041
0.999087
1.00097
1.00002
0.999837
1.00038
0.998651
1.00065
1.00047
1.00027
1.00049
0.998775
1.00033
1.00052
0.999362
0.998728
1.00039
1.00016
0.999492
1.00046
0.999547
1.00015
1.00065
0.999342
1.00091
1.00047
1.00105
1.00133
1.00073
0.999062
0.999132
1.00062
1.00096
0.998414
0.999293
0.998792
0.998721
0.999809
0.999494
0.999931
1.00107
1.00019
0.999022
0.999847
1.00142
1.00104
0.998737
0.999394
1.00014
0.998947
1.00119
1.00102
0.999212
0.999771
1.00015
0.998361
1.00047
1.00118
1.00019
1.00014
1.00031
1.00026
1.00086
1.00007
0.999901
0.999577
1.00098
1.00035
1.00023
1.00011
1.00033
1.0019
0.999983
0.998175
1.00064
1.00109
1.00094
1.00033
1.00024
0.999212
1.00114
1.00068
1.00068
1.0021
1.00048
1.00161
1.0024
1.00151
1.00103
1.00098
1.00104
1.00234
1.002
1.00028
1.00101
1.00142
0.999071
1.00108
1.00258
1.00174
1.00044
0.999709
0.999547
1.00114
1.00255
1.00117
0.999842
1.00065
1.00165
1.00209
1.00051
1.00081
1.00191
1.00038
1.0006
1.00154
1.00096
1.0016
1.0006
0.999785
1.00116
0.999939
1.00116
1.00136
1.00008
1.00067
1.00043
1.00048
1.00087
1.00008
1.00094
0.999515
1.00017
1.0005
1.00059
1.00067
1.00056
0.99988
0.999641
0.999714
1.00096
1.00047
1.00078
1.0003
0.999892
0.999414
0.999999
0.999864
1.00062
0.999606
1.00079
1.00138
1.00038
0.999269
1.00058
1.00003
0.999089
0.999827
1.00071
1.00008
1.0009
1.00033
0.999131
1.00075
0.999875
0.999911
1.00026
1.00068
0.999647
1.00079
1.00085
0.99912
0.999323
1.00015
1.00037
1.00104
1.00035
1.00041
0.998796
1.0001
0.998991
0.99896
0.998951
1.0008
1.00089
1.00071
0.999618
1.00081
1.00071
0.999904
0.999118
0.999656
1.00165
0.999614
0.999875
1.00042
0.999992
1.00172
1.00053
1.00068
1.00035
1.00023
1.00077
1.00104
1.00108
0.999503
1.00144
1.00134
0.999423
1.00078
1.00062
1.00209
1.00162
1.00185
1.00104
1.0011
1.00095
1.00024
1.00071
1.00163
1.00127
1.00207
1.001
1.00083
1.00133
1.00102
1.00175
1.00213
1.00033
1.00112
1.00153
1.00237
1.00094
1.0005
1.00205
1.00078
1.00006
1.00194
1.00022
0.99981
1.00161
1.00173
1.00044
1.0014
1.00086
1.00018
1.00017
1.00133
1.00084
1.00057
1.00052
0.999985
1.00142
1.00048
0.999338
0.999841
0.999548
0.999669
1.00064
0.999858
1.00048
1.00011
1.00044
1.00067
1.00014
1.00139
1.00039
0.998632
0.99911
0.999709
1.00109
1.0004
0.99992
1.00026
0.998814
1.00071
1.00108
0.998879
0.998457
1.00011
1.00023
1.00121
0.998582
0.999413
1.00015
1.00083
1.00117
1.00012
1.00093
1.00155
1.00119
0.999041
0.999485
1.00054
1.0012
0.999674
0.99983
0.999693
0.999713
1.00177
1.00063
0.999178
1.0005
0.999997
0.99951
0.999964
1.0007
0.99997
0.999535
1.00038
1.00138
0.99985
0.998864
1.00102
1.00074
1.00139
1.00044
0.999709
1.00103
1.00025
1.00164
1.00032
1.00087
1.00052
1.00147
1.00161
1.00085
1.00186
1.00074
1.00069
1.0018
1.00171
1.0013
1.00164
1.00091
1.00128
1.00167
1.0012
1.00074
1.00187
1.00164
1.00126
1.00041
1.00138
1.00039
1.00204
1.00181
1.0022
1.00174
1.00142
1.00177
1.00206
1.00211
1.00157
1.00252
1.00144
0.999262
1.0013
1.0018
1.00086
1.00084
1.00186
1.00098
1.00097
1.00098
1.00011
1.0003
1.00171
1.00122
1.00043
1.00044
1.00193
0.999917
1.00066
0.999769
1.00117
0.999933
1.0002
1.00067
1.00122
1.00063
1.0008
0.997556
1.00035
1.00048
1.0006
1.00033
0.999145
0.99986
0.999827
1.00011
1.00133
1.00056
1.00064
1.00033
0.999302
0.999521
1.00081
0.999209
1.00037
0.998213
1.00001
1.0002
0.999664
0.999581
1.00017
1.00089
1.00057
1.00047
0.999876
0.998948
0.999759
0.999498
1.00048
1.00082
1.00024
1.00019
0.998816
0.998293
0.999826
1.00034
0.999719
0.999208
1.00044
1.00059
1.00015
0.999839
0.999653
0.998667
1.00009
1.0001
0.999627
0.999418
1.00067
1.00132
0.99952
1.00045
0.999987
0.998687
1.00086
1.00155
0.999197
1.00034
1.00163
0.999682
1.00067
1.00114
1.00045
1.00169
1.00051
1.00055
1.00154
1.00171
0.999278
1.00111
1.00152
0.999828
1.00215
1.00099
1.00072
1.00208
1.00185
1.0018
1.00063
1.00125
1.00117
1.00122
1.0021
1.00183
1.00128
1.00202
1.00254
1.00153
1.00025
1.00139
1.0007
1.00201
1.0019
1.00132
1.0017
1.00083
1.00074
1.00194
1.00067
1.00083
1.00183
1.00012
1.00148
1.00195
1.00197
1.00024
1.00148
1.00096
1.00123
1.00095
1.0011
1.00173
1.00128
1.00066
1.00073
1.00127
0.99972
1.00068
1.00112
1.00071
1.0012
1.00086
1.00052
1.00037
1.00051
1.00134
1.00036
1
0.999579
1.00094
0.999891
0.998881
1.0004
1.00126
0.999617
1.00043
1.00079
0.998539
1.00013
1.00035
1.00056
0.998312
1.00014
0.999794
0.998636
1.00076
0.999992
1.00009
0.999503
1.00026
1.00042
1.00103
0.999588
0.997685
1.00047
1.00071
1.00023
0.999569
1.00067
0.999076
0.999311
0.999504
1.00038
1.00039
0.99971
0.998356
0.998536
1.00092
1.00124
0.999457
1.00071
1.00044
1.00096
0.999942
0.99967
0.999918
0.999878
1.00087
1.00025
0.998724
1
1.00141
1.00014
0.999771
1.00095
1.0007
1.00137
0.998667
1.00053
1.00174
1.00099
1.00079
1.00056
1.00184
1.00115
1.00047
1.00096
1.00192
1.00178
1.00082
1.00136
1.00101
1.00133
1.00192
1.00101
1.00208
1.00064
1.00092
1.00217
1.00215
1.00108
1.00124
1.00093
1.00181
1.00079
1.00109
1.00216
1.00074
1.00083
1.00153
1.00225
1.0018
1.00109
1.00144
1.0015
1.00133
1.00178
1.0023
1.0014
1.00192
1.00185
1.00051
1.00194
1.00185
1.00092
1.00227
1.00123
1.00036
1.00061
1.0018
0.999866
1.00062
1.00085
1.00185
1.00112
1.00098
1.00033
0.99968
1.00095
1.00138
0.999743
1.00101
1.00151
0.999982
0.999293
1.00073
1.00135
0.999948
0.998591
0.999039
0.999489
1.00088
1.00023
1.00029
0.999063
1.00015
0.998487
1.00217
1.00002
0.999015
1.00075
0.999254
0.999006
0.999348
0.999175
0.999481
1.00011
1.00099
1.00014
0.998861
0.99831
0.999276
1.0003
1.0007
1.00134
1.00121
0.999286
1.00119
0.999414
0.999146
0.999006
0.999615
1.0008
1.00097
1.00111
1.00144
0.999134
1.00163
1.00085
1.00035
1.00009
1.00003
1.00102
1.00142
1.00034
1.00099
1.00114
0.99958
1.00031
0.999693
1.00002
1.00099
1.00072
1.00099
1.00179
1.00051
1.0012
1.00146
1.00161
1.00173
1.00104
1.00075
1.00179
1.00166
1.002
1.00152
1.00126
1.0018
1.00204
1.00065
1.00119
1.00149
1.00072
1.00194
1.00192
1.00126
1.00153
1.00185
1.00151
1.00193
1.00221
1.00148
1.00163
1.00196
1.00181
1.00167
1.00057
1.00154
1.00146
1.00188
1.0022
1.00158
1.00086
1.00212
1.00115
1.00141
1.00164
1.00151
1.00206
1.00177
1.00106
1.00103
1.00178
1.0012
1.0005
0.99992
1.00125
1.00149
1.00073
1.00149
1.00073
0.999994
1.00087
1.00042
1.00055
1.00101
0.999879
0.999286
1.00034
0.999795
1.001
0.999825
1.00087
0.999368
0.999944
1.00041
1.00016
1.0011
1.00099
0.999593
0.999104
1.00101
1.00106
1.00089
0.999821
1.00086
1.00001
0.999375
0.997987
1.00022
1.00086
0.999213
1.00092
0.999513
1.00079
1.00113
0.999884
0.999917
0.99944
1.00012
0.99869
1.00018
1.00131
1.00105
1.0003
0.998699
1.00055
1.00035
0.999741
1.00067
0.999902
0.999481
1.00066
0.998941
1.00069
1.00053
0.998825
1.00036
1.00179
1.00064
0.999704
1.00142
1.00132
1.00078
1.0002
1.00099
1.00092
1.00142
1.00105
1.00101
1.00036
1.00107
1.00131
1.00122
1.0016
1.00097
1.00104
1.00116
1.00101
1.00169
1.00079
1.00087
1.00161
1.0021
1.00188
1.00193
1.00149
1.00105
1.00232
1.00182
1.0024
1.00203
1.00125
1.00248
1.00128
1.00115
1.0014
1.00218
1.00221
1.00229
1.00194
1.00207
1.00105
1.00224
1.00198
1.00187
1.00146
1.00204
1.00152
1.00107
1.00163
1.0021
1.00125
1.00181
1.00122
1.00123
1.00137
1.00066
1.00197
1.00232
1.00118
1.00172
1.00205
1.00146
0.999918
0.999877
1.00085
1.00122
0.999331
1.00065
1.00122
1.00158
1.00023
0.999927
1.00126
1.00052
0.999721
0.999778
1.00027
1.00115
1.00133
1.00042
0.99923
0.998267
1.00119
1.00066
1.00063
1.00002
1.00078
0.998685
1.00113
1.0013
0.999381
1.0001
1.00123
0.999921
0.999775
0.999998
1.00028
1.00046
0.998815
1.00003
1.0008
1.00037
0.999492
0.999857
1.00004
0.999709
1.00077
1.00031
1.00015
1.00061
1.00002
1.00119
1.00045
0.999869
0.998488
0.998534
1.00172
1.00016
0.99932
0.99949
1.00093
1.00115
0.999748
0.999021
1.00052
1.00174
0.999475
1.00078
1.00103
1.00219
1.00169
1.00031
1.00118
1.00107
0.9988
1.00105
1.002
1.00125
1.00219
1.00177
1.0012
1.00054
1.00129
1.00253
1.0015
1.00186
1.00172
1.00135
1.00184
1.00228
1.00218
1.0021
1.00123
1.0013
1.0016
1.00138
1.00143
1.0019
1.00232
1.00174
1.00222
1.00248
1.00144
1.00065
1.00223
1.00189
1.00237
1.00166
1.00176
1.00189
1.00245
1.00165
1.00138
1.00224
1.0027
1.00223
1.00091
1.00167
1.00134
1.00158
1.00179
1.00218
1.00067
1.00096
1.00144
1.00154
1.00179
1.00157
1.00059
0.999134
1.00174
1.00164
1.00159
1.00029
1.0014
1.00151
1.0005
1.00115
1.00016
1.00019
0.999483
1.00171
1.00062
1.00041
1.0002
1.00107
1.00003
0.999205
0.999397
0.999928
1.00033
1.0004
1.0004
0.998347
0.999697
0.998976
1.00003
1.00154
1.00154
1.00103
1.00006
1.00031
0.999008
1.00131
0.998794
0.999658
0.999348
0.999922
1.00107
0.99955
0.999327
1.00001
0.998587
0.999997
1.00047
1.00092
0.999971
1.00106
1.00063
1.00091
0.999436
0.999013
1.00028
1.0013
1.00066
1.00097
0.99956
1.001
1.00021
0.999808
1.00145
1.00081
1.00097
0.999905
1.00032
1.00115
1.00165
1.00029
1.00113
1.00128
1.00193
1.00121
1.00204
1.0013
1.00223
1.00187
1.00113
1.00126
1.0018
1.00143
1.00199
1.0022
1.00171
1.0019
1.00174
1.00109
1.00115
1.00212
1.00136
1.00173
1.00138
1.00172
1.00257
1.00207
1.00198
1.00145
1.00247
1.00159
1.00176
1.00177
1.00139
1.00179
1.00229
1.00118
1.00174
1.00142
1.00171
1.00183
1.00244
1.00176
1.00167
1.00175
1.00145
1.00143
1.00218
1.00167
1.00097
1.00195
1.00101
1.00086
1.00053
1.00096
1.00145
1.00157
1.00181
1.00122
1.00168
1.00131
0.999997
1.00071
1.00081
1.00071
1.00064
1.00105
1.00015
0.998838
1.0008
1.00127
1.0006
1.00002
1.00021
1.00006
1.00133
1.0004
0.999072
1.00152
1.00024
0.999687
0.999835
0.999331
0.998948
1.00033
0.999309
0.999014
1.00089
1.00094
1.00061
0.99827
0.999945
1.00034
1.00019
0.99977
1.00103
1.00122
0.997274
0.999522
1.00114
0.998826
1.00102
0.999181
1.0009
0.999801
1.00001
0.99928
1.00152
0.998873
0.999828
1.00011
0.999064
1.00036
1.0008
1.00044
0.999985
1.00056
1.00121
1.00086
1.0002
1.00031
1.00167
1.00154
1.00181
1.00076
0.999782
1.00052
1.00237
1.00164
1.00054
1.00203
1.00213
1.00209
1.00062
1.0015
1.00185
1.00183
1.00195
1.00109
1.00121
1.00185
1.00146
1.00169
1.00151
1.00185
1.00217
1.00162
1.00178
1.00205
1.0015
1.00212
1.00203
1.00185
1.00202
1.00139
1.00159
1.0021
1.00189
1.0017
1.00146
1.0017
1.00195
1.00221
1.00145
1.00156
1.00169
1.00191
1.00186
1.00198
1.00128
1.00161
1.00076
1.00192
1.00231
1.00181
1.00151
1.00175
1.0022
1.00106
1.00133
1.00227
1.00151
1.00154
1.00154
1.00194
1.00102
1.00095
1.00148
1.00088
0.999387
1.00119
1.00118
1.00013
1.00122
1.00128
1.00102
0.999657
0.99955
0.999599
0.999849
0.99967
1.0001
1.00016
1.00023
0.999634
1.00004
1.00016
0.998819
1.0012
1.00128
1.00115
0.999552
0.997692
1.00174
1.00104
0.999776
0.997135
1.00007
1.00087
1.0009
1.00016
1.00058
1.00009
0.999191
1.00069
1.00066
1.00013
1.00111
1.00096
0.999488
0.998153
0.999784
0.999148
1.00045
0.999015
0.999247
1.00166
1.00024
0.999408
1.00135
0.998853
1.0004
1.00108
0.999542
1.00147
1.00096
1.00097
1.00151
1.00131
1.00123
1.00192
1.00041
1.00149
1.00112
1.0017
1.00156
1.00105
1.00072
1.00209
1.00128
1.00201
1.0012
1.00211
1.00224
1.0011
1.00156
1.00165
1.00229
1.00209
1.00206
1.00139
1.00131
1.00198
1.00192
1.00184
1.00224
1.0021
1.0017
1.00166
1.00112
1.00164
1.00143
1.00201
1.00168
1.00124
1.00172
1.00222
1.00084
1.00182
1.00237
1.00124
1.00198
1.00191
1.00119
1.00201
1.00132
1.00138
1.00167
1.00233
1.00241
1.00238
1.00131
1.00077
1.00248
1.00185
1.00157
1.00176
1.00193
1.00191
1.0016
1.00188
1.00135
1.00103
1.00167
1.00186
1.00093
0.999966
1.00135
1.00119
1.00076
1.00044
1.00081
1.00106
1.00046
1.00044
1.00002
1.00057
1.00108
1.00079
1.00039
0.998122
1.00074
1.00055
1.00013
0.999972
0.999798
0.999731
1.00092
1.00059
1.00056
0.999034
0.998836
1.00142
1.00087
1.00022
1.00006
1.00006
1.00038
0.998543
1.0005
1.0013
0.999889
0.998873
0.997915
1.00116
1.00083
1.00061
0.998919
1.0007
0.998366
1.00054
1.00096
1.0001
1.00076
1.00066
1.0008
1.00099
0.99944
1.00142
1.00143
0.999959
1.00042
1.00185
1.00174
1.00076
1.00171
1.00166
1.00151
1.00231
1.0011
1.00036
1.00233
1.00192
1.00199
1.00102
1.0019
1.00218
1.00141
1.00188
1.00182
1.00229
1.00154
1.00216
1.0023
1.00132
1.00178
1.00177
1.00211
1.00174
1.00166
1.00187
1.00205
1.00187
1.00158
1.00163
1.0017
1.00183
1.00175
1.00187
1.00144
1.00166
1.00175
1.00176
1.00202
1.00154
1.00173
1.0015
1.00199
1.00188
1.00221
1.0017
1.00147
1.00151
1.00181
1.00106
1.00186
1.00197
1.00204
1.00196
1.00186
1.00189
1.00169
1.00193
1.00173
1.00184
1.00118
1.00095
1.00144
1.00112
1.00133
1.002
1.0011
1.0013
1.00073
1.00065
1.00089
1.00196
1.00083
1.00036
1.00116
1.00047
1.00082
1.00122
1.00022
1.00121
1.00037
0.999623
1.00086
1.00131
0.998194
0.998491
1.00056
1.00097
1.0006
0.999421
0.998004
1.00015
1.00007
0.999872
1.00104
1.00055
1.00042
1.0002
0.999268
0.99882
1.00073
1.00091
0.999927
1.00022
1.00019
1.00041
0.999902
1.00143
0.999199
1.0006
1.00132
1.00082
1.00071
1.00027
1.00093
1.00187
0.999046
1.00036
1.00187
1.00145
0.999997
1.00082
1.00158
0.998849
1.00073
1.00235
1.00118
1.00097
1.0017
1.00184
1.0009
1.00175
1.00149
1.00154
1.00253
1.00185
1.00187
1.00176
1.00227
1.00209
1.00199
1.00131
1.00207
1.00229
1.00178
1.00158
1.00163
1.00185
1.00156
1.0013
1.00203
1.00192
1.0013
1.00172
1.00223
1.00167
1.00135
1.00181
1.00184
1.0018
1.00199
1.00193
1.00189
1.00141
1.00209
1.00208
1.00152
1.00193
1.00156
1.00163
1.00175
1.00187
1.00233
1.00114
1.00223
1.00156
1.00161
1.00168
1.00151
1.00166
1.00231
1.00148
1.00232
1.00174
1.00111
1.0014
1.00248
1.00157
1.00118
1.00155
1.00172
1.0009
1.00116
1.00191
1.00062
1.00131
1.00227
1.00114
1.00031
1.00116
1.00081
1.00022
0.999761
1.00064
0.998724
1.00015
0.999789
1.00149
0.999207
1.00023
1.00032
0.999408
1.00107
1.00017
0.999325
0.999574
0.999398
1.00209
1.00127
0.998964
0.998102
1.00053
1.00037
0.999719
1.0003
1.0003
1.00074
0.999493
1.00081
0.999879
1.00002
1.0006
1.00014
0.999458
1.0001
0.999264
1.00147
1.00091
0.999343
1.00074
1.00027
1.0007
1.00091
1.00088
1.0014
1.00021
1.00171
1.00061
0.999968
1.00083
1.00036
1.00036
1.00212
1.00209
1.00123
1.00148
1.00185
1.00148
1.00185
1.00239
1.00042
1.00151
1.0023
1.00151
1.00207
1.00121
1.00217
1.00127
1.00214
1.00143
1.00159
1.00199
1.00142
1.002
1.00203
1.00184
1.00128
1.00176
1.00151
1.00164
1.00142
1.00169
1.00162
1.0011
1.00164
1.00152
1.00149
1.00138
1.00169
1.00181
1.0014
1.00189
1.00177
1.00199
1.0015
1.00158
1.00192
1.0016
1.00202
1.00195
1.00167
1.00146
1.00211
1.00175
1.0012
1.00165
1.00185
1.00143
1.00198
1.00202
1.00215
1.00158
1.00178
1.00115
1.00118
1.00184
1.00229
1.00137
1.00132
1.00158
1.00203
1.00129
1.0008
0.999827
1.00104
1.00077
1.00116
1.00145
1.00205
0.999569
0.998689
1.00134
1.00067
1.00017
1.0014
0.99924
1.00063
1.00077
1.00094
1.00041
0.998585
1.00115
0.999824
1.00031
1.00086
0.999297
0.99814
1.0007
1.00065
1.00014
1.00097
0.999509
0.998823
1.00009
1.00029
1.00044
1.00022
0.999498
1.00054
0.998873
0.999772
0.999994
1.00084
1.00122
0.999611
1.00092
1.00086
0.999643
1.00076
1.00089
1.00113
1.00002
1.00175
1.00126
1.00085
1.00192
1.00115
1.00091
1.00216
1.00212
1.00131
1.00117
1.00133
1.00101
1.00217
1.00171
1.00127
1.00203
1.00182
1.00179
1.0018
1.00172
1.00158
1.00184
1.00144
1.00183
1.00151
1.00204
1.0019
1.00152
1.00193
1.00189
1.00122
1.00142
1.00162
1.00149
1.00172
1.00134
1.00139
1.00175
1.00166
1.00139
1.00175
1.00161
1.0014
1.00138
1.00154
1.00171
1.00174
1.00141
1.00167
1.00181
1.00198
1.0018
1.00134
1.00154
1.00155
1.0015
1.00173
1.00226
1.0023
1.00216
1.00054
1.00176
1.00191
1.00164
1.00164
1.00209
1.00151
1.0011
1.0021
1.00226
1.00168
1.00219
1.00183
1.00114
1.00103
1.00135
1.00057
1.00121
1.00198
1.00073
1.00073
1.00031
1.00132
1.00157
1.00096
1.0006
1.00081
0.999136
1.00084
1.00129
1.00059
1.00042
0.999085
0.99928
0.998291
1.00061
1.00068
0.998556
1.00016
0.999369
1.00027
1.00025
0.999994
1.00065
1.00024
0.999864
0.999996
1.0008
1.00017
1.00135
0.999993
0.999173
1.00065
1.00116
1.00051
1.00042
1.00101
0.999855
0.999239
1.00043
1.00122
1.00038
1.00059
1.00098
1.00127
1.00018
1.00066
1.00167
1.00128
1.00123
1.00209
1.0016
1.00098
1.00132
1.0017
1.00202
1.0019
1.00174
1.0022
1.00161
1.00237
1.00225
1.00173
1.00152
1.00179
1.00218
1.00117
1.00179
1.00187
1.00179
1.00168
1.00144
1.00173
1.00136
1.00144
1.00159
1.00173
1.00153
1.00169
1.00129
1.00175
1.00165
1.00162
1.00173
1.00161
1.0015
1.00162
1.00169
1.00147
1.00154
1.00145
1.00141
1.00153
1.00157
1.00154
1.00155
1.00157
1.00174
1.00168
1.00174
1.00197
1.00183
1.00171
1.00169
1.00165
1.00191
1.00169
1.00207
1.00168
1.002
1.00171
1.00153
1.00211
1.00175
1.00205
1.00153
1.00108
1.00194
1.00205
1.00214
1.00103
1.00113
1.00121
1.00141
1.00124
1.00187
1.00186
1.00099
0.999111
0.999332
1.00071
1.00021
0.999779
1.00096
1.00063
1.00106
1.00068
1.00036
1.00115
0.999207
0.999813
1.00054
0.998913
0.99858
1.00089
1.00108
1.00024
0.999761
1.00017
0.99956
0.999988
1.00002
0.999578
0.999307
1.00026
1.00153
0.999588
0.998565
1.00108
1.00128
1.00037
1.00091
1.0002
0.998375
1.00068
1.00047
1.0008
1.00097
1.00024
1.00137
1.00158
1.00081
1.00098
1.00195
1.00146
1.00133
1.00226
1.00221
1.00139
1.00129
1.00173
1.00185
1.0018
1.00175
1.00189
1.00205
1.00197
1.00185
1.00169
1.00166
1.00155
1.00204
1.00162
1.0015
1.00192
1.00158
1.00153
1.00139
1.00143
1.00113
1.00169
1.00155
1.00172
1.00151
1.00138
1.00158
1.0015
1.00158
1.00159
1.00141
1.00155
1.00136
1.00148
1.00153
1.00136
1.0015
1.00145
1.00136
1.00156
1.00152