# vtk DataFile Version 3.0
3D MAGNET output
ASCII
DATASET STRUCTURED_GRID
DIMENSIONS 126 126 2
POINTS 31752 double
0 0 0
38.8511 0 0
77.7023 0 0
116.553 0 0
155.405 0 0
194.256 0 0
233.107 0 0
271.958 0 0
310.809 0 0
349.66 0 0
388.511 0 0
427.362 0 0
466.214 0 0
505.065 0 0
543.916 0 0
582.767 0 0
621.618 0 0
660.469 0 0
699.32 0 0
738.172 0 0
777.023 0 0
815.874 0 0
854.725 0 0
893.576 0 0
932.427 0 0
971.278 0 0
1010.13 0 0
1048.98 0 0
1087.83 0 0
1126.68 0 0
1165.53 0 0
1204.39 0 0
1243.24 0 0
1282.09 0 0
1320.94 0 0
1359.79 0 0
1398.64 0 0
1437.49 0 0
1476.34 0 0
1515.19 0 0
1554.05 0 0
1592.9 0 0
1631.75 0 0
1670.6 0 0
1709.45 0 0
1748.3 0 0
1787.15 0 0
1826 0 0
1864.85 0 0
1903.71 0 0
1942.56 0 0
1981.41 0 0
2020.26 0 0
2059.11 0 0
2097.96 0 0
2136.81 0 0
2175.66 0 0
2214.51 0 0
2253.37 0 0
2292.22 0 0
2331.07 0 0
2369.92 0 0
2408.77 0 0
2447.62 0 0
2486.47 0 0
2525.32 0 0
2564.17 0 0
2603.03 0 0
2641.88 0 0
2680.73 0 0
2719.58 0 0
2758.43 0 0
2797.28 0 0
2836.13 0 0
2874.98 0 0
2913.83 0 0
2952.69 0 0
2991.54 0 0
3030.39 0 0
3069.24 0 0
3108.09 0 0
3146.94 0 0
3185.79 0 0
3224.64 0 0
3263.5 0 0
3302.35 0 0
3341.2 0 0
3380.05 0 0
3418.9 0 0
3457.75 0 0
3496.6 0 0
3535.45 0 0
3574.3 0 0
3613.16 0 0
3652.01 0 0
3690.86 0 0
3729.71 0 0
3768.56 0 0
3807.41 0 0
3846.26 0 0
3885.11 0 0
3923.96 0 0
3962.82 0 0
4001.67 0 0
4040.52 0 0
4079.37 0 0
4118.22 0 0
4157.07 0 0
4195.92 0 0
4234.77 0 0
4273.62 0 0
4312.48 0 0
4351.33 0 0
4390.18 0 0
4429.03 0 0
4467.88 0 0
4506.73 0 0
4545.58 0 0
4584.43 0 0
4623.28 0 0
4662.14 0 0
4700.99 0 0
4739.84 0 0
4778.69 0 0
4817.54 0 0
4856.39 0 0
0 38.8511 0
38.8511 38.8511 0
77.7023 38.8511 0
116.553 38.8511 0
155.405 38.8511 0
194.256 38.8511 0
233.107 38.8511 0
271.958 38.8511 0
310.809 38.8511 0
349.66 38.8511 0
388.511 38.8511 0
427.362 38.8511 0
466.214 38.8511 0
505.065 38.8511 0
543.916 38.8511 0
582.767 38.8511 0
621.618 38.8511 0
660.469 38.8511 0
699.32 38.8511 0
738.172 38.8511 0
777.023 38.8511 0
815.874 38.8511 0
854.725 38.8511 0
893.576 38.8511 0
932.427 38.8511 0
971.278 38.8511 0
1010.13 38.8511 0
1048.98 38.8511 0
1087.83 38.8511 0
1126.68 38.8511 0
1165.53 38.8511 0
1204.39 38.8511 0
1243.24 38.8511 0
1282.09 38.8511 0
1320.94 38.8511 0
1359.79 38.8511 0
1398.64 38.8511 0
1437.49 38.8511 0
1476.34 38.8511 0
1515.19 38.8511 0
1554.05 38.8511 0
1592.9 38.8511 0
1631.75 38.8511 0
1670.6 38.8511 0
1709.45 38.8511 0
1748.3 38.8511 0
1787.15 38.8511 0
1826 38.8511 0
1864.85 38.8511 0
1903.71 38.8511 0
1942.56 38.8511 0
1981.41 38.8511 0
2020.26 38.8511 0
2059.11 38.8511 0
2097.96 38.8511 0
2136.81 38.8511 0
2175.66 38.8511 0
2214.51 38.8511 0
2253.37 38.8511 0
2292.22 38.8511 0
2331.07 38.8511 0
2369.92 38.8511 0
2408.77 38.8511 0
2447.62 38.8511 0
2486.47 38.8511 0
2525.32 38.8511 0
2564.17 38.8511 0
2603.03 38.8511 0
2641.88 38.8511 0
2680.73 38.8511 0
2719.58 38.8511 0
2758.43 38.8511 0
2797.28 38.8511 0
2836.13 38.8511 0
2874.98 38.8511 0
2913.83 38.8511 0
2952.69 38.8511 0
2991.54 38.8511 0
3030.39 38.8511 0
3069.24 38.8511 0
3108.09 38.8511 0
3146.94 38.8511 0
3185.79 38.8511 0
3224.64 38.8511 0
3263.5 38.8511 0
3302.35 38.8511 0
3341.2 38.8511 0
3380.05 38.8511 0
3418.9 38.8511 0
3457.75 38.8511 0
3496.6 38.8511 0
3535.45 38.8511 0
3574.3 38.8511 0
3613.16 38.8511 0
3652.01 38.8511 0
3690.86 38.8511 0
3729.71 38.8511 0
3768.56 38.8511 0
3807.41 38.8511 0
3846.26 38.8511 0
3885.11 38.8511 0
3923.96 38.8511 0
3962.82 38.8511 0
4001.67 38.8511 0
4040.52 38.8511 0
4079.37 38.8511 0
4118.22 38.8511 0
4157.07 38.8511 0
4195.92 38.8511 0
4234.77 38.8511 0
4273.62 38.8511 0
4312.48 38.8511 0
4351.33 38.8511 0
4390.18 38.8511 0
4429.03 38.8511 0
4467.88 38.8511 0
4506.73 38.8511 0
4545.58 38.8511 0
4584.43 38.8511 0
4623.28 38.8511 0
4662.14 38.8511 0
4700.99 38.8511 0
4739.84 38.8511 0
4778.69 38.8511 0
4817.54 38.8511 0
4856.39 38.8511 0
0 77.7023 0
38.8511 77.7023 0
77.7023 77.7023 0
116.553 77.7023 0
155.405 77.7023 0
194.256 77.7023 0
233.107 77.7023 0
271.958 77.7023 0
310.809 77.7023 0
349.66 77.7023 0
388.511 77.7023 0
427.362 77.7023 0
466.214 77.7023 0
505.065 77.7023 0
543.916 77.7023 0
582.767 77.7023 0
621.618 77.7023 0
660.469 77.7023 0
699.32 77.7023 0
738.172 77.7023 0
777.023 77.7023 0
815.874 77.7023 0
854.725 77.7023 0
893.576 77.7023 0
932.427 77.7023 0
971.278 77.7023 0
1010.13 77.7023 0
1048.98 77.7023 0
1087.83 77.7023 0
1126.68 77.7023 0
1165.53 77.7023 0
1204.39 77.7023 0
1243.24 77.7023 0
1282.09 77.7023 0
1320.94 77.7023 0
1359.79 77.7023 0
1398.64 77.7023 0
1437.49 77.7023 0
1476.34 77.7023 0
1515.19 77.7023 0
1554.05 77.7023 0
1592.9 77.7023 0
1631.75 77.7023 0
1670.6 77.7023 0
1709.45 77.7023 0
1748.3 77.7023 0
1787.15 77.7023 0
1826 77.7023 0
1864.85 77.7023 0
1903.71 77.7023 0
1942.56 77.7023 0
1981.41 77.7023 0
2020.26 77.7023 0
2059.11 77.7023 0
2097.96 77.7023 0
2136.81 77.7023 0
2175.66 77.7023 0
2214.51 77.7023 0
2253.37 77.7023 0
2292.22 77.7023 0
2331.07 77.7023 0
2369.92 77.7023 0
2408.77 77.7023 0
2447.62 77.7023 0
2486.47 77.7023 0
2525.32 77.7023 0
2564.17 77.7023 0
2603.03 77.7023 0
2641.88 77.7023 0
2680.73 77.7023 0
2719.58 77.7023 0
2758.43 77.7023 0
2797.28 77.7023 0
2836.13 77.7023 0
2874.98 77.7023 0
2913.83 77.7023 0
2952.69 77.7023 0
2991.54 77.7023 0
3030.39 77.7023 0
3069.24 77.7023 0
3108.09 77.7023 0
3146.94 77.7023 0
3185.79 77.7023 0
3224.64 77.7023 0
3263.5 77.7023 0
3302.35 77.7023 0
3341.2 77.7023 0
3380.05 77.7023 0
3418.9 77.7023 0
3457.75 77.7023 0
3496.6 77.7023 0
3535.45 77.7023 0
3574.3 77.7023 0
3613.16 77.7023 0
3652.01 77.7023 0
3690.86 77.7023 0
3729.71 77.7023 0
3768.56 77.7023 0
3807.41 77.7023 0
3846.26 77.7023 0
3885.11 77.7023 0
3923.96 77.7023 0
3962.82 77.7023 0
4001.67 77.7023 0
4040.52 77.7023 0
4079.37 77.7023 0
4118.22 77.7023 0
4157.07 77.7023 0
4195.92 77.7023 0
4234.77 77.7023 0
4273.62 77.7023 0
4312.48 77.7023 0
4351.33 77.7023 0
4390.18 77.7023 0
4429.03 77.7023 0
4467.88 77.7023 0
4506.73 77.7023 0
4545.58 77.7023 0
4584.43 77.7023 0
4623.28 77.7023 0
4662.14 77.7023 0
4700.99 77.7023 0
4739.84 77.7023 0
4778.69 77.7023 0
4817.54 77.7023 0
4856.39 77.7023 0
0 116.553 0
38.8511 116.553 0
77.7023 116.553 0
116.553 116.553 0
155.405 116.553 0
194.256 116.553 0
233.107 116.553 0
271.958 116.553 0
310.809 116.553 0
349.66 116.553 0
388.511 116.553 0
427.362 116.553 0
466.214 116.553 0
505.065 116.553 0
543.916 116.553 0
582.767 116.553 0
621.618 116.553 0
660.469 116.553 0
699.32 116.553 0
738.172 116.553 0
777.023 116.553 0
815.874 116.553 0
854.725 116.553 0
893.576 116.553 0
932.427 116.553 0
971.278 116.553 0
1010.13 116.553 0
1048.98 116.553 0
1087.83 116.553 0
1126.68 116.553 0
1165.53 116.553 0
1204.39 116.553 0
1243.24 116.553 0
1282.09 116.553 0
1320.94 116.553 0
1359.79 116.553 0
1398.64 116.553 0
1437.49 116.553 0
1476.34 116.553 0
1515.19 116.553 0
1554.05 116.553 0
1592.9 116.553 0
1631.75 116.553 0
1670.6 116.553 0
1709.45 116.553 0
1748.3 116.553 0
1787.15 116.553 0
1826 116.553 0
1864.85 116.553 0
1903.71 116.553 0
1942.56 116.553 0
1981.41 116.553 0
2020.26 116.553 0
2059.11 116.553 0
2097.96 116.553 0
2136.81 116.553 0
2175.66 116.553 0
2214.51 116.553 0
2253.37 116.553 0
2292.22 116.553 0
2331.07 116.553 0
2369.92 116.553 0
2408.77 116.553 0
2447.62 116.553 0
2486.47 116.553 0
2525.32 116.553 0
2564.17 116.553 0
2603.03 116.553 0
2641.88 116.553 0
2680.73 116.553 0
2719.58 116.553 0
2758.43 116.553 0
2797.28 116.553 0
2836.13 116.553 0
2874.98 116.553 0
2913.83 116.553 0
2952.69 116.553 0
2991.54 116.553 0
3030.39 116.553 0
3069.24 116.553 0
3108.09 116.553 0
3146.94 116.553 0
3185.79 116.553 0
3224.64 116.553 0
3263.5 116.553 0
3302.35 116.553 0
3341.2 116.553 0
3380.05 116.553 0
3418.9 116.553 0
3457.75 116.553 0
3496.6 116.553 0
3535.45 116.553 0
3574.3 116.553 0
3613.16 116.553 0
3652.01 116.553 0
3690.86 116.553 0
3729.71 116.553 0
3768.56 116.553 0
3807.41 116.553 0
3846.26 116.553 0
3885.11 116.553 0
3923.96 116.553 0
3962.82 116.553 0
4001.67 116.553 0
4040.52 116.553 0
4079.37 116.553 0
4118.22 116.553 0
4157.07 116.553 0
4195.92 116.553 0
4234.77 116.553 0
4273.62 116.553 0
4312.48 116.553 0
4351.33 116.553 0
4390.18 116.553 0
4429.03 116.553 0
4467.88 116.553 0
4506.73 116.553 0
4545.58 116.553 0
4584.43 116.553 0
4623.28 116.553 0
4662.14 116.553 0
4700.99 116.553 0
4739.84 116.553 0
4778.69 116.553 0
4817.54 116.553 0
4856.39 116.553 0
0 155.405 0
38.8511 155.405 0
77.7023 155.405 0
116.553 155.405 0
155.405 155.405 0
194.256 155.405 0
233.107 155.405 0
271.958 155.405 0
310.809 155.405 0
349.66 155.405 0
388.511 155.405 0
427.362 155.405 0
466.214 155.405 0
505.065 155.405 0
543.916 155.405 0
582.767 155.405 0
621.618 155.405 0
660.469 155.405 0
699.32 155.405 0
738.172 155.405 0
777.023 155.405 0
815.874 155.405 0
854.725 155.405 0
893.576 155.405 0
932.427 155.405 0
971.278 155.405 0
1010.13 155.405 0
1048.98 155.405 0
1087.83 155.405 0
1126.68 155.405 0
1165.53 155.405 0
1204.39 155.405 0
1243.24 155.405 0
1282.09 155.405 0
1320.94 155.405 0
1359.79 155.405 0
1398.64 155.405 0
1437.49 155.405 0
1476.34 155.405 0
1515.19 155.405 0
1554.05 155.405 0
1592.9 155.405 0
1631.75 155.405 0
1670.6 155.405 0
1709.45 155.405 0
1748.3 155.405 0
1787.15 155.405 0
1826 155.405 0
1864.85 155.405 0
1903.71 155.405 0
1942.56 155.405 0
1981.41 155.405 0
2020.26 155.405 0
2059.11 155.405 0
2097.96 155.405 0
2136.81 155.405 0
2175.66 155.405 0
2214.51 155.405 0
2253.37 155.405 0
2292.22 155.405 0
2331.07 155.405 0
2369.92 155.405 0
2408.77 155.405 0
2447.62 155.405 0
2486.47 155.405 0
2525.32 155.405 0
2564.17 155.405 0
2603.03 155.405 0
2641.88 155.405 0
2680.73 155.405 0
2719.58 155.405 0
2758.43 155.405 0
2797.28 155.405 0
2836.13 155.405 0
2874.98 155.405 0
2913.83 155.405 0
2952.69 155.405 0
2991.54 155.405 0
3030.39 155.405 0
3069.24 155.405 0
3108.09 155.405 0
3146.94 155.405 0
3185.79 155.405 0
3224.64 155.405 0
3263.5 155.405 0
3302.35 155.405 0
3341.2 155.405 0
3380.05 155.405 0
3418.9 155.405 0
3457.75 155.405 0
3496.6 155.405 0
3535.45 155.405 0
[...]
POINT_DATA 31752
SCALARS Density double 
LOOKUP_TABLE default
0.99971
1.00044
0.999471
0.999641
0.999787
0.999812
1.0004
0.999589
1.00046
1.00035
0.998763
0.999703
1.00016
0.999998
1.0003
1.0003
0.999654
0.999652
0.999793
1.00007
1.00089
1.00033
0.999453
1.00075
0.999911
0.999297
0.999823
1.00088
0.999495
1.00009
1.00092
0.999601
0.999722
1.0006
1.0004
0.999998
1.00094
1.00078
1.00066
1.00029
0.999818
1.00072
1.00054
1.00091
1.00127
1.00093
1.00126
1.00085
1.00093
1.00103
1.00079
1.00143
1.00119
1.00106
1.00162
1.00178
1.00187
1.00082
1.00112
1.00208
1.00143
1.00077
1.00168
1.00231
1.00143
1.0016
1.0011
1.00083
1.00158
1.00157
1.00103
1.00144
1.00093
1.00066
1.00129
1.00006
1.00182
1.00131
1.00052
1.0016
1.00133
1.00091
1.00042
1.0005
1.00154
1.00022
1.0001
1.00037
0.999891
0.999868
1.00075
1.00081
1.00008
1.00005
1.00017
1.00064
1.00056
0.999883
1.00004
1.00077
0.999909
1.00022
1.00047
1.00007
1.00052
0.999061
1.00029
1.00096
0.999848
0.99934
0.999699
0.999943
0.999792
0.999676
0.99931
1.00084
1.00063
0.999416
0.999101
0.999614
1.00029
0.999753
0.999691
0.999386
1.00023
1.00034
1.00037
1.00045
1.00057
1.00044
0.999604
0.999536
1.00024
0.999792
0.999782
1.00024
1.00064
0.99964
0.998813
1.00064
0.999059
0.999694
1.00118
0.999449
0.999025
1.00025
1.00041
1.00019
1.00016
1.00076
0.9999
0.998817
1.00017
1.00115
1.00037
0.998754
0.999579
1.00075
1.00032
1.00016
1.00072
0.999668
1.00013
1.00009
1.00054
1.00064
0.999814
0.999807
1.00123
1.00128
1.00023
1.00033
1.00083
1.00113
1.00058
1.00122
1.00072
1.00016
0.999969
1.00061
1.00009
1.00038
1.00132
1.00109
1.00017
1.00091
1.00188
1.00139
1.00065
1.00169
1.00013
1.00085
1.00066
1.00039
1.00146
1.00141
1.00156
1.00104
1.00094
1.00169
1.00037
1.00006
1.00068
1.0012
1.0008
1.00053
1.00048
1.00042
1.00015
1.00034
1.00082
1.00075
0.999514
0.999948
1.00048
1.00029
1.00044
0.999959
0.999318
1.00019
1.00033
1.00027
0.999826
0.999361
1.00059
1.00061
0.999033
0.999802
1.00048
0.999234
0.999417
1.00023
1.00065
0.999981
0.999992
1.00035
1.00006
0.999345
0.99966
1.00064
0.999652
0.999451
1.00059
1.00069
0.998536
0.999984
1.00045
1.00005
1.0003
1.00028
1.00005
1.00048
1.00003
0.99985
0.999641
0.999993
1.00071
1.00062
0.999216
1.00006
0.999921
0.99969
1.00058
1.00003
0.999954
1.0005
1.00009
0.999967
0.999352
1.00023
1.00077
1.00035
0.999617
0.999643
1.00015
1.00021
1.00022
1.00113
0.999746
0.997812
0.999342
1.00123
1.001
1.00055
1.00006
0.999507
0.999159
0.999764
1.00065
1.00058
1.00014
1.00014
1.00067
1
0.999882
1.00031
1.00044
1.00006
1.00101
1.00095
0.999222
1.00092
1.00097
1.00006
0.999671
1.00012
1.00086
1.00105
1.00001
1.00019
1.00065
1.00064
1.00035
1.00077
1.00044
0.999972
1.00059
1.00085
1.00098
1.00048
1.00027
1.00082
1.00021
1.00028
1.00053
1.00092
1.00042
1.00046
1.00089
1.00134
0.999236
0.999285
1.00019
1.00043
1.0005
1.00093
0.999714
1.0002
0.999355
1.00009
1.00016
1.00001
1.00068
0.999722
1.0007
1.00018
0.999354
1.00057
0.999979
0.999887
1.00021
0.999101
1.00038
1.00028
1.00015
1.00027
0.999186
1.00022
1.00033
0.999555
0.999219
1.00029
1.00012
0.999667
1.00028
0.999724
1.0001
1.00039
0.999554
1.00053
1.00033
1.00066
1.00082
1.00046
0.99937
0.999472
1.00041
1.0006
0.999013
0.999537
0.99926
0.999197
0.999888
0.999681
0.999965
1.00071
1.00012
0.999323
0.999873
1.00093
1.00069
0.999174
0.999617
1.00008
0.999317
1.00076
1.00068
0.999482
0.999852
1.00007
0.998946
1.00026
1.00074
1.00009
1.00004
1.00015
1.0001
1.00052
1
0.99984
0.999679
1.00054
1.00015
1.00004
0.999956
1.00011
1.00113
0.999845
0.998672
1.00028
1.00055
1.00043
1.00007
0.999949
0.999297
1.00053
1.00022
1.00022
1.00113
1.00006
1.00079
1.00134
1.00073
1.0004
1.00034
1.00042
1.0013
1.00106
0.99984
1.00039
1.00065
0.999057
1.00043
1.00146
1.00088
1
0.9995
0.999388
1.00048
1.00149
1.00051
0.999583
1.00018
1.00088
1.00113
1.00008
1.0003
1.00105
1.00006
1.0002
1.0008
1.00045
1.00087
1.00022
0.99972
1.00063
0.99984
1.00064
1.00075
0.999965
1.00034
1.00019
1.00022
1.00047
1
1.0006
0.999639
1.00003
1.0003
1.00034
1.0004
1.00035
0.999922
0.999734
0.999768
1.00057
1.00028
1.00045
1.00019
0.999941
0.999626
0.999987
0.999933
1.00041
0.99972
1.00045
1.00092
1.00022
0.999509
1.00035
1.00002
0.999394
0.999919
1.00047
1.00005
1.00058
1.00019
0.999433
1.00044
0.999912
0.999958
1.00019
1.00042
0.999764
1.00048
1.00056
0.999427
0.999532
1.00008
1.00023
1.00066
1.00025
1.00021
0.999244
1.00007
0.999416
0.999307
0.999302
1.00049
1.00052
1.0004
0.999784
1.00046
1.00037
0.999879
0.999339
0.999713
1.00102
0.999703
0.99981
1.00014
0.99986
1.00097
1.00022
1.00025
1.00006
1.00002
1.00033
1.00051
1.00053
0.999428
1.00074
1.00072
0.99937
1.00024
1.00019
1.00115
1.00085
1.00095
1.00041
1.00046
1.00037
0.999886
1.0002
1.00078
1.00057
1.00113
1.00039
1.00028
1.00058
1.00037
1.0009
1.00114
0.999936
1.00046
1.00078
1.00134
1.00034
1.00006
1.00115
1.00026
0.999781
1.00108
0.99999
0.999641
1.00088
1.00093
1.00008
1.00074
1.00039
0.999957
0.999977
1.00073
1.00042
1.00025
1.00021
0.999872
1.00082
1.00025
0.99949
0.999848
0.999678
0.999752
1.00037
0.999874
1.00025
1.00004
1.00022
1.0004
1.00008
1.00085
1.00023
0.999149
0.999402
0.999814
1.00073
1.00024
0.999953
1.00013
0.999261
1.00047
1.00071
0.999303
0.998986
1.00004
1.00018
1.00078
0.999121
0.999595
1.00007
1.00055
1.00078
1.00005
1.00055
1.00097
1.00075
0.999358
0.999637
1.00037
1.00078
0.999787
0.99985
0.999771
0.999857
1.00115
1.00037
0.999448
1.00029
0.999974
0.999669
0.999953
1.00044
0.999992
0.999647
1.0002
1.00085
0.999845
0.999233
1.00058
1.0004
1.00081
1.0002
0.999717
1.00052
1.00006
1.00095
1.00009
1.00037
1.00016
1.00079
1.0009
1.00035
1.00101
1.00028
1.00022
1.00096
1.0009
1.00062
1.00083
1.00035
1.00056
1.00085
1.00052
1.00017
1.00098
1.00085
1.00052
0.999985
1.00061
0.999963
1.00108
1.00093
1.00119
1.0009
1.00061
1.00086
1.00108
1.0011
1.00076
1.00144
1.00068
0.999169
1.0006
1.00099
1.00028
1.00027
1.00096
1.00039
1.00039
1.00043
0.999826
0.999968
1.00092
1.00058
1.00003
1.00012
1.00111
0.999784
1.00028
0.999733
1.00061
0.999836
0.999984
1.00032
1.00068
1.00036
1.00041
0.99836
1.00017
1.00028
1.00032
1.00017
0.999434
0.999864
0.999848
1.00005
1.00084
1.00033
1.00038
1.00017
0.999526
0.9997
1.00053
0.999538
1.00024
0.998847
1.00001
1.00016
0.999752
0.999726
1.00013
1.00055
1.00037
1.00032
0.999902
0.99929
0.999832
0.999662
1.00032
1.00054
1.00014
1.00013
0.999239
0.9989
0.999915
1.00023
0.999816
0.999489
1.0003
1.00039
1.00007
0.999883
0.999736
0.99913
1.00006
1.00007
0.999725
0.999607
1.00043
1.00082
0.99963
1.00021
0.99993
0.999087
1.00048
1.00094
0.999389
1.00015
1.00097
0.999652
1.0003
1.0006
1.00013
1.00094
1.00012
1.00014
1.00083
1.00091
0.999311
1.00053
1.00076
0.999637
1.00118
1.00039
1.00018
1.00113
1.00097
1.00093
1.00012
1.00053
1.0005
1.00051
1.00111
1.00092
1.00054
1.00105
1.00144
1.0007
0.999821
1.00061
1.00018
1.00105
1.00099
1.00057
1.00085
1.00025
1.0002
1.00101
1.00012
1.00028
1.00097
0.999758
1.0007
1.00108
1.00101
0.999904
1.00071
1.00038
1.00055
1.0004
1.00048
1.00093
1.00065
1.00025
1.0003
1.00064
0.999667
1.00027
1.0006
1.00032
1.00064
1.00047
1.00023
1.00013
1.00027
1.00079
1.00018
0.999929
0.999685
1.00057
0.999883
0.999255
1.00022
1.00077
0.99975
1.00026
1.00047
0.999059
1.00006
1.00025
1.00032
0.998948
1.00009
0.999854
0.999168
1.00051
1.00006
1.00003
0.99965
1.00018
1.00026
1.00065
0.999706
0.99849
1.00029
1.00047
1.00011
0.999713
1.00046
0.999442
0.999521
0.999662
1.00025
1.0003
0.999828
0.998947
0.99904
1.00058
1.00079
0.999629
1.00038
1.00029
1.00056
0.999916
0.999775
0.999905
0.999854
1.00049
1.00012
0.999098
0.999898
1.00083
0.999978
0.999717
1.00048
1.00034
1.00073
0.998948
1.00017
1.00098
1.00046
1.00026
1.00012
1.001
1.00052
1.00004
1.00038
1.00101
1.00092
1.00026
1.0006
1.00037
1.00059
1.00097
1.00039
1.00111
1.00008
1.00026
1.00117
1.00116
1.00041
1.00048
1.00033
1.00092
1.00018
1.0004
1.00115
1.00014
1.00019
1.00069
1.00124
1.00086
1.00038
1.00067
1.0007
1.00055
1.0009
1.00125
1.00061
1.00098
1.00094
1.00002
1.00103
1.00097
1.00033
1.00126
1.00057
0.999951
1.00018
1.00098
0.999705
1.00019
1.0004
1.00106
1.00058
1.00047
1.00008
0.999657
1.0005
1.00081
0.99973
1.00056
1.00089
0.999906
0.999493
1.00043
1.00085
0.999927
0.999042
0.999354
0.999688
1.00057
1.00015
1.00015
0.999407
1.00006
0.999049
1.00141
1.00001
0.999337
1.0005
0.999566
0.999356
0.999601
0.999494
0.999665
1.00008
1.00067
1.00012
0.999316
0.998918
0.999537
1.0002
1.00042
1.00086
1.00075
0.999531
1.00072
0.999662
0.99945
0.999364
0.999721
1.00048
1.00058
1.00071
1.00089
0.999381
1.00097
1.00054
1.00018
0.99997
0.999913
1.0006
1.00083
1.00012
1.00054
1.00064
0.999607
1.00009
0.999656
0.999841
1.00051
1.00029
1.00045
1.00102
1.0001
1.00052
1.00073
1.00079
1.00088
1.00044
1.00022
1.0009
1.00083
1.00104
1.0007
1.00051
1.0009
1.00106
1.00008
1.00048
1.00069
1.00016
1.00101
1.00099
1.0005
1.0007
1.0009
1.00064
1.00098
1.00118
1.00063
1.00077
1.00101
1.0009
1.00079
1.00002
1.00071
1.00067
1.00093
1.00118
1.00073
1.00024
1.00112
1.00044
1.00059
1.0008
1.00071
1.00109
1.0009
1.00039
1.00039
1.00094
1.00055
1.00006
0.999702
1.0006
1.00076
1.0003
1.00083
1.00028
0.999817
1.00039
1.00014
1.00022
1.00054
0.999823
0.999432
1.00014
0.999834
1.00058
0.999825
1.00049
0.999583
0.999913
1.00019
1.00007
1.00068
1.00061
0.999726
0.99939
1.00061
1.00066
1.00058
0.99987
1.00055
1.00006
0.999552
0.998706
1.00014
1.00056
0.999504
1.00056
0.999689
1.00052
1.00074
0.999926
0.999917
0.999652
1.00008
0.999172
1.0001
1.00086
1.00068
1.00014
0.99914
1.00034
1.00023
0.999833
1.00038
0.999907
0.99969
1.00036
0.999286
1.00039
1.00029
0.999196
1.00015
1.0011
1.00031
0.999665
1.00081
1.00075
1.00035
0.999984
1.00047
1.00041
1.00075
1.00048
1.00047
1
1.00045
1.0006
1.00056
1.00078
1.00035
1.00042
1.0005
1.00039
1.00083
1.0002
1.00024
1.00077
1.00111
1.00096
1.00099
1.00067
1.00033
1.00127
1.00092
1.00131
1.00102
1.00048
1.00137
1.00054
1.0004
1.0006
1.00117
1.00118
1.00124
1.00101
1.00105
1.00031
1.00119
1.00103
1.00093
1.00065
1.00107
1.00067
1.00035
1.00078
1.00109
1.00052
1.00092
1.00049
1.00051
1.00063
1.0001
1.00105
1.0013
1.00051
1.00085
1.00114
1.00072
0.999693
0.999681
1.00039
1.00061
0.999417
1.00026
1.00067
1.00087
1.00002
0.99981
1.00071
1.0003
0.999744
0.999756
1.00009
1.00068
1.00083
1.00026
0.999441
0.998861
1.00074
1.0004
1.00036
1.00002
1.00048
0.999129
1.00072
1.00083
0.99957
1.00007
1.00078
0.999946
0.999836
1.00003
1.00017
1.00024
0.999259
1.00001
1.00054
1.00022
0.999709
0.999903
0.999974
0.999813
1.00047
1.00017
1.00007
1.00037
1.00001
1.00075
1.00026
0.999913
0.998985
0.999036
1.00112
1.00007
0.999469
0.999604
1.00056
1.00069
0.999723
0.999226
1.00026
1.001
0.999495
1.00031
1.00049
1.00126
1.00093
0.999983
1.00056
1.00047
0.998935
1.00043
1.00107
1.00053
1.00118
1.0009
1.00049
1.00001
1.00053
1.00142
1.00069
1.0009
1.00084
1.00055
1.0009
1.00124
1.00117
1.0011
1.0005
1.00052
1.00077
1.00059
1.0006
1.00097
1.00125
1.00083
1.00117
1.00141
1.00061
1.00004
1.0012
1.00099
1.0013
1.00078
1.00084
1.00096
1.00134
1.00076
1.00056
1.00117
1.00157
1.00118
1.00027
1.00078
1.00056
1.00072
1.00092
1.00116
1.00011
1.00034
1.0007
1.00075
1.00093
1.00079
1.00011
0.999154
1.00092
1.00092
1.0008
0.999987
1.00076
1.0008
1.00018
1.00063
0.999997
0.99999
0.999568
1.00102
1.00034
1.00019
1.00009
1.00065
0.999999
0.999443
0.99958
0.999961
1.00021
1.00025
1.00024
0.998935
0.999779
0.999325
1
1.001
1.00096
1.00059
1.00001
1.00021
0.999382
1.00081
0.999228
0.99976
0.999588
0.999962
1.00071
0.999704
0.999595
1
0.99908
0.999944
1.00031
1.0006
0.999949
1.00063
1.00038
1.00056
0.999625
0.9993
1.00013
1.0008
1.00034
1.00053
0.999667
1.00053
1.00002
0.999727
1.0008
1.00039
1.00044
0.999748
1.00001
1.00056
1.00089
0.99994
1.00047
1.0006
1.00101
1.00053
1.00106
1.00055
1.00121
1.00096
1.00043
1.0005
1.00088
1.00065
1.00103
1.00119
1.00081
1.00095
1.00085
1.00037
1.00044
1.00115
1.00058
1.00082
1.00056
1.00081
1.00147
1.00109
1.00102
1.00066
1.0014
1.00074
1.00086
1.00088
1.00059
1.00089
1.0013
1.00044
1.00082
1.00064
1.00081
1.00092
1.00137
1.00086
1.00081
1.00086
1.00064
1.00061
1.00116
1.00078
1.00032
1.00104
1.00035
1.00024
1.00004
1.00033
1.00067
1.00076
1.00093
1.00054
1.00087
1.00063
0.999785
1.00025
1.00035
1.00029
1.00026
1.00056
0.999945
0.999128
1.00042
1.00075
1.00029
0.999917
1.00004
0.999977
1.00081
1.00021
0.999344
1.00095
1.00013
0.999769
0.999885
0.999596
0.999335
1.00021
0.99956
0.999351
1.00052
1.00065
1.00038
0.998876
0.999956
1.00023
1.00012
0.999818
1.00066
1.00079
0.998262
0.999681
1.00074
0.99931
1.00062
0.999482
1.00052
0.999871
0.999972
0.999527
1.00095
0.999278
0.999866
1.00007
0.999325
1.00016
1.00047
1.0002
0.999887
1.00021
1.00067
1.00046
0.999962
0.999986
1.00089
1.00082
1.00096
1.00024
0.999563
1.00007
1.00135
1.00083
1.00005
1.00104
1.00115
1.0011
1.00005
1.00065
1.00095
1.00093
1.001
1.00035
1.00048
1.00093
1.00064
1.00082
1.00067
1.00092
1.00115
1.00075
1.00089
1.00108
1.00066
1.00113
1.0011
1.00095
1.00107
1.0006
1.00075
1.00112
1.001
1.00086
1.00064
1.00082
1.00103
1.00121
1.00064
1.00072
1.00081
1.00098
1.00095
1.00101
1.00053
1.00074
1.00015
1.00099
1.00128
1.00088
1.00065
1.00085
1.00118
1.00036
1.00055
1.00121
1.00069
1.00069
1.00076
1.00106
1.00039
1.00036
1.00075
1.00034
0.999369
1.00058
1.00061
0.999897
1.00063
1.00069
1.00055
0.999659
0.999605
0.999687
0.999844
0.999718
1.00002
1.00007
1.00012
0.999751
1.00001
1.00004
0.999252
1.00077
1.00081
1.00073
0.999654
0.998504
1.0011
1.00071
0.999826
0.998178
1.00004
1.00056
1.00055
1.00009
1.00038
1.00006
0.999444
1.00042
1.00041
1.00005
1.0007
1.00061
0.999651
0.998793
0.999864
0.999466
1.00024
0.999312
0.99948
1.00105
1.00008
0.999516
1.00079
0.999173
1.00014
1.00056
0.999584
1.0008
1.00043
1.00046
1.00078
1.00061
1.00059
1.00101
0.999993
1.00069
1.00049
1.00085
1.00074
1.00037
1.00012
1.0011
1.00053
1.00101
1.00046
1.00111
1.00121
1.00039
1.00068
1.00077
1.00124
1.00113
1.0011
1.00061
1.00055
1.00106
1.001
1.00093
1.00126
1.00115
1.00083
1.00081
1.00043
1.0008
1.00064
1.0011
1.00084
1.00048
1.00089
1.00126
1.00016
1.00094
1.00137
1.00049
1.00105
1.001
1.00045
1.00107
1.00055
1.00059
1.00079
1.0013
1.00134
1.00132
1.00052
1.00013
1.00138
1.00095
1.0007
1.00086
1.00099
1.00096
1.00073
1.00096
1.00059
1.00038
1.00085
1.00101
1.00036
0.999726
1.00069
1.0006
1.00029
1.00014
1.00039
1.00054
1.00018
1.00018
0.999932
1.00028
1.00063
1.00047
1.0002
0.998723
1.00044
1.00036
1.00006
0.999988
0.999846
0.999809
1.00059
1.0004
1.00034
0.999312
0.999216
1.00094
1.00058
1.00009
1
1.00006
1.0002
0.999043
1.00034
1.00086
0.999921
0.999273
0.99866
1.00072
1.00054
1.00035
0.999318
1.00042
0.998903
1.0003
1.0006
0.999986
1.00041
1.00032
1.00041
1.00049
0.999488
1.00079
1.00077
0.999777
1.00008
1.00104
1.00092
1.00024
1.00083
1.00081
1.00074
1.00129
1.00038
0.99988
1.00126
1.00098
1.00101
1.00032
1.00096
1.00118
1.00058
1.00094
1.00091
1.00127
1.00069
1.00117
1.0013
1.00055
1.0009
1.0009
1.00114
1.00088
1.00082
1.00097
1.00115
1.00099
1.00076
1.00081
1.00086
1.00099
1.00092
1.001
1.00067
1.00084
1.00091
1.00092
1.0011
1.00072
1.00088
1.0007
1.00107
1.00099
1.00122
1.00085
1.00065
1.00072
1.00094
1.00038
1.00093
1.00104
1.00108
1.00099
1.00091
1.00096
1.0008
1.00095
1.00084
1.00092
1.00045
1.00032
1.00068
1.00045
1.00058
1.00107
1.0005
1.00059
1.00024
1.0002
1.00038
1.00111
1.00035
1.00008
1.00061
1.00018
1.00039
1.0007
1.00009
1.00068
1.00016
0.999692
1.00051
1.00084
0.998835
0.99897
1.00032
1.0006
1.00042
0.99963
0.998715
1.00008
1.00005
0.999965
1.00067
1.00031
1.00027
1.00013
0.999497
0.999249
1.0005
1.00057
0.999917
1.00009
1.00009
1.00021
0.999933
1.00091
0.999463
1.00032
1.00078
1.00046
1.00038
1.00003
1.00051
1.00112
0.999232
1.00009
1.00108
1.00079
0.99979
1.00035
1.00085
0.998978
1.00022
1.00134
1.00049
1.0003
1.00088
1.00095
1.00028
1.00087
1.00066
1.0007
1.00144
1.00091
1.00091
1.00085
1.00123
1.00112
1.00102
1.00055
1.00111
1.0013
1.00091
1.00072
1.0008
1.001
1.00075
1.00054
1.00115
1.00106
1.00054
1.00088
1.00131
1.00087
1.00061
1.00097
1.001
1.00096
1.00109
1.00108
1.00102
1.00063
1.00121
1.00116
1.00071
1.00105
1.00077
1.0008
1.00089
1.001
1.00133
1.00044
1.00124
1.00075
1.00075
1.0008
1.00068
1.00082
1.00128
1.00067
1.00126
1.00086
1.00036
1.0006
1.00138
1.00074
1.00043
1.00073
1.00084
1.00026
1.00049
1.00103
1.00014
1.00061
1.0013
1.00053
0.999973
1.00058
1.0004
1
0.999753
1.0003
0.999107
0.999986
0.99984
1.00094
0.999443
1.00007
1.00016
0.999598
1.00068
1.00013
0.999575
0.999671
0.999589
1.00136
1.00085
0.999296
0.998768
1.00033
1.00024
0.999793
1.00015
1.00022
1.00043
0.999641
1.00049
0.999909
1.00002
1.00037
1.00004
0.999612
1.00002
0.99948
1.00091
1.00052
0.999504
1.00037
1.00006
1.00032
1.00044
1.00041
1.00073
0.999968
1.00092
1.00021
0.999757
1.0003
0.999941
0.99995
1.00115
1.00112
1.00049
1.00065
1.00093
1.00067
1.00092
1.00132
0.999865
1.00067
1.00128
1.00071
1.00109
1.00048
1.00119
1.00053
1.00118
1.00065
1.00076
1.0011
1.00065
1.0011
1.00114
1.00098
1.00056
1.00094
1.00075
1.00085
1.00068
1.00091
1.00085
1.00042
1.00086
1.00079
1.00075
1.00065
1.00092
1.00099
1.00066
1.00104
1.00096
1.00113
1.00072
1.00078
1.00103
1.00079
1.00112
1.00106
1.00081
1.00069
1.00117
1.00088
1.00045
1.0008
1.00097
1.00061
1.00103
1.00105
1.00113
1.00073
1.00087
1.00044
1.00043
1.00095
1.00126
1.00057
1.00054
1.00075
1.0011
1.00062
1.00027
0.999645
1.00046
1.00031
1.00053
1.0008
1.00122
0.999589
0.999038
1.00077
1.00037
1.00004
1.00079
0.999437
1.00035
1.00049
1.00055
1.0002
0.999086
1.0007
0.999945
1.0002
1.00055
0.999526
0.998795
1.00044
1.00037
1.00009
1.00062
0.999706
0.999235
1.00005
1.00019
1.00024
1.00011
0.999698
1.0003
0.999233
0.999808
0.999931
1.00047
1.00072
0.999641
1.00048
1.00043
0.999605
1.00036
1.00044
1.00051
0.999794
1.00094
1.00058
1.00028
1.00105
1.00045
1.00024
1.00116
1.00116
1.00054
1.00045
1.00056
1.00033
1.00117
1.00084
1.00046
1.00105
1.00093
1.0009
1.00092
1.00084
1.00077
1.00097
1.00067
1.00095
1.00073
1.00116
1.00105
1.00075
1.00108
1.00108
1.00049
1.00068
1.00087
1.00076
1.00092
1.00063
1.00066
1.00097
1.00088
1.00067
1.00095
1.00084
1.00067
1.00067
1.00078
1.00093
1.00095
1.00067
1.00089
1.00099
1.00114
1.00096
1.00058
1.00077
1.00074
1.0007
1.00089
1.00129
1.00134
1.00118
0.999941
1.00087
1.00101
1.00078
1.0008
1.00113
1.00066
1.00038
1.0011
1.00122
1.0008
1.00118
1.00091
1.00041
1.00041
1.00061
1.0001
1.00055
1.00108
1.00027
1.00026
1.00002
1.0007
1.00088
1.00048
1.00029
1.00042
0.999336
1.00048
1.00075
1.00032
1.00022
0.99939
0.999491
0.998905
1.0004
1.00045
0.999058
1.00005
0.999637
1.0002
1.00014
0.999978
1.00041
1.00015
0.999888
0.999991
1.00048
1.00007
1.00086
0.999966
0.9994
1.00035
1.0007
1.00026
1.0002
1.00056
0.999802
0.999381
1.00015
1.00067
1.00009
1.00019
1.00045
1.00063
0.999875
1.00017
1.00086
1.00059
1.00053
1.00112
1.00078
1.0003
1.00052
1.00083
1.00105
1.00094
1.00084
1.00117
1.00073
1.00135
1.00126
1.00084
1.00069
1.00093
1.00125
1.00045
1.00094
1.00101
1.00097
1.00088
1.0007
1.00095
1.00065
1.00069
1.00084
1.00095
1.0008
1.00092
1.00059
1.00099
1.0009
1.00086
1.00099
1.00088
1.00077
1.00088
1.00095
1.00076
1.0008
1.00074
1.0007
1.0008
1.00083
1.00081
1.00081
1.00081
1.00095
1.00087
1.00091
1.0011
1.00098
1.00089
1.00087
1.00085
1.00104
1.00084
1.00112
1.00082
1.00105
1.00083
1.0007
1.00113
1.00088
1.00108
1.00068
1.00036
1.00098
1.00107
1.00112
1.00035
1.00047
1.00053
1.00069
1.00054
1.001
1.00104
1.00043
0.999205
0.999427
1.00038
1.00002
0.999731
1.00051
1.00033
1.00062
1.00037
1.00018
1.00069
0.999447
0.999873
1.00033
0.999299
0.99906
1.00055
1.0007
1.00014
0.999813
1.0001
0.999688
0.999963
1.00003
0.999752
0.999526
1.00015
1.00094
0.999705
0.999057
1.00063
1.0008
1.00017
1.00053
1.00001
0.998832
1.00033
1.00019
1.00036
1.00047
0.999952
1.00068
1.00083
1.00026
1.00035
1.00104
1.00067
1.00055
1.00123
1.00119
1.00057
1.0005
1.00086
1.00094
1.0009
1.00087
1.00096
1.00108
1.00105
1.00095
1.00085
1.00081
1.00075
1.00115
1.00083
1.00072
1.00108
1.00083
1.00078
1.00067
1.00071
1.00047
1.00092
1.00082
1.00097
1.0008
1.00069
1.00085
1.0008
1.00088
1.00088
1.00073
1.00085
1.0007
1.00078
1.00084
1.0007
1.00081
1.00076
1.00067