# vtk DataFile Version 3.0
3D MAGNET output
ASCII
DATASET STRUCTURED_GRID
DIMENSIONS 126 126 2
POINTS 31752 double
0 0 0
38.8511 0 0
77.7023 0 0
116.553 0 0
155.405 0 0
194.256 0 0
233.107 0 0
271.958 0 0
310.809 0 0
349.66 0 0
388.511 0 0
427.362 0 0
466.214 0 0
505.065 0 0
543.916 0 0
582.767 0 0
621.618 0 0
660.469 0 0
699.32 0 0
738.172 0 0
777.023 0 0
815.874 0 0
854.725 0 0
893.576 0 0
932.427 0 0
971.278 0 0
1010.13 0 0
1048.98 0 0
1087.83 0 0
1126.68 0 0
1165.53 0 0
1204.39 0 0
1243.24 0 0
1282.09 0 0
1320.94 0 0
1359.79 0 0
1398.64 0 0
1437.49 0 0
1476.34 0 0
1515.19 0 0
1554.05 0 0
1592.9 0 0
1631.75 0 0
1670.6 0 0
1709.45 0 0
1748.3 0 0
1787.15 0 0
1826 0 0
1864.85 0 0
1903.71 0 0
1942.56 0 0
1981.41 0 0
2020.26 0 0
2059.11 0 0
2097.96 0 0
2136.81 0 0
2175.66 0 0
2214.51 0 0
2253.37 0 0
2292.22 0 0
2331.07 0 0
2369.92 0 0
2408.77 0 0
2447.62 0 0
2486.47 0 0
2525.32 0 0
2564.17 0 0
2603.03 0 0
2641.88 0 0
2680.73 0 0
2719.58 0 0
2758.43 0 0
2797.28 0 0
2836.13 0 0
2874.98 0 0
2913.83 0 0
2952.69 0 0
2991.54 0 0
3030.39 0 0
3069.24 0 0
3108.09 0 0
3146.94 0 0
3185.79 0 0
3224.64 0 0
3263.5 0 0
3302.35 0 0
3341.2 0 0
3380.05 0 0
3418.9 0 0
3457.75 0 0
3496.6 0 0
3535.45 0 0
3574.3 0 0
3613.16 0 0
3652.01 0 0
3690.86 0 0
3729.71 0 0
3768.56 0 0
3807.41 0 0
3846.26 0 0
3885.11 0 0
3923.96 0 0
3962.82 0 0
4001.67 0 0
4040.52 0 0
4079.37 0 0
4118.22 0 0
4157.07 0 0
4195.92 0 0
4234.77 0 0
4273.62 0 0
4312.48 0 0
4351.33 0 0
4390.18 0 0
4429.03 0 0
4467.88 0 0
4506.73 0 0
4545.58 0 0
4584.43 0 0
4623.28 0 0
4662.14 0 0
4700.99 0 0
4739.84 0 0
4778.69 0 0
4817.54 0 0
4856.39 0 0
0 38.8511 0
38.8511 38.8511 0
77.7023 38.8511 0
116.553 38.8511 0
155.405 38.8511 0
194.256 38.8511 0
233.107 38.8511 0
271.958 38.8511 0
310.809 38.8511 0
349.66 38.8511 0
388.511 38.8511 0
427.362 38.8511 0
466.214 38.8511 0
505.065 38.8511 0
543.916 38.8511 0
582.767 38.8511 0
621.618 38.8511 0
660.469 38.8511 0
699.32 38.8511 0
738.172 38.8511 0
777.023 38.8511 0
815.874 38.8511 0
854.725 38.8511 0
893.576 38.8511 0
932.427 38.8511 0
971.278 38.8511 0
1010.13 38.8511 0
1048.98 38.8511 0
1087.83 38.8511 0
1126.68 38.8511 0
1165.53 38.8511 0
1204.39 38.8511 0
1243.24 38.8511 0
1282.09 38.8511 0
1320.94 38.8511 0
1359.79 38.8511 0
1398.64 38.8511 0
1437.49 38.8511 0
1476.34 38.8511 0
1515.19 38.8511 0
1554.05 38.8511 0
1592.9 38.8511 0
1631.75 38.8511 0
1670.6 38.8511 0
1709.45 38.8511 0
1748.3 38.8511 0
1787.15 38.8511 0
1826 38.8511 0
1864.85 38.8511 0
1903.71 38.8511 0
1942.56 38.8511 0
1981.41 38.8511 0
2020.26 38.8511 0
2059.11 38.8511 0
2097.96 38.8511 0
2136.81 38.8511 0
2175.66 38.8511 0
2214.51 38.8511 0
2253.37 38.8511 0
2292.22 38.8511 0
2331.07 38.8511 0
2369.92 38.8511 0
2408.77 38.8511 0
2447.62 38.8511 0
2486.47 38.8511 0
2525.32 38.8511 0
2564.17 38.8511 0
2603.03 38.8511 0
2641.88 38.8511 0
2680.73 38.8511 0
2719.58 38.8511 0
2758.43 38.8511 0
2797.28 38.8511 0
2836.13 38.8511 0
2874.98 38.8511 0
2913.83 38.8511 0
2952.69 38.8511 0
2991.54 38.8511 0
3030.39 38.8511 0
3069.24 38.8511 0
3108.09 38.8511 0
3146.94 38.8511 0
3185.79 38.8511 0
3224.64 38.8511 0
3263.5 38.8511 0
3302.35 38.8511 0
3341.2 38.8511 0
3380.05 38.8511 0
3418.9 38.8511 0
3457.75 38.8511 0
3496.6 38.8511 0
3535.45 38.8511 0
3574.3 38.8511 0
3613.16 38.8511 0
3652.01 38.8511 0
3690.86 38.8511 0
3729.71 38.8511 0
3768.56 38.8511 0
3807.41 38.8511 0
3846.26 38.8511 0
3885.11 38.8511 0
3923.96 38.8511 0
3962.82 38.8511 0
4001.67 38.8511 0
4040.52 38.8511 0
4079.37 38.8511 0
4118.22 38.8511 0
4157.07 38.8511 0
4195.92 38.8511 0
4234.77 38.8511 0
4273.62 38.8511 0
4312.48 38.8511 0
4351.33 38.8511 0
4390.18 38.8511 0
4429.03 38.8511 0
4467.88 38.8511 0
4506.73 38.8511 0
4545.58 38.8511 0
4584.43 38.8511 0
4623.28 38.8511 0
4662.14 38.8511 0
4700.99 38.8511 0
4739.84 38.8511 0
4778.69 38.8511 0
4817.54 38.8511 0
4856.39 38.8511 0
0 77.7023 0
38.8511 77.7023 0
77.7023 77.7023 0
116.553 77.7023 0
155.405 77.7023 0
194.256 77.7023 0
233.107 77.7023 0
271.958 77.7023 0
310.809 77.7023 0
349.66 77.7023 0
388.511 77.7023 0
427.362 77.7023 0
466.214 77.7023 0
505.065 77.7023 0
543.916 77.7023 0
582.767 77.7023 0
621.618 77.7023 0
660.469 77.7023 0
699.32 77.7023 0
738.172 77.7023 0
777.023 77.7023 0
815.874 77.7023 0
854.725 77.7023 0
893.576 77.7023 0
932.427 77.7023 0
971.278 77.7023 0
1010.13 77.7023 0
1048.98 77.7023 0
1087.83 77.7023 0
1126.68 77.7023 0
1165.53 77.7023 0
1204.39 77.7023 0
1243.24 77.7023 0
1282.09 77.7023 0
1320.94 77.7023 0
1359.79 77.7023 0
1398.64 77.7023 0
1437.49 77.7023 0
1476.34 77.7023 0
1515.19 77.7023 0
1554.05 77.7023 0
1592.9 77.7023 0
1631.75 77.7023 0
1670.6 77.7023 0
1709.45 77.7023 0
1748.3 77.7023 0
1787.15 77.7023 0
1826 77.7023 0
1864.85 77.7023 0
1903.71 77.7023 0
1942.56 77.7023 0
1981.41 77.7023 0
2020.26 77.7023 0
2059.11 77.7023 0
2097.96 77.7023 0
2136.81 77.7023 0
2175.66 77.7023 0
2214.51 77.7023 0
2253.37 77.7023 0
2292.22 77.7023 0
2331.07 77.7023 0
2369.92 77.7023 0
2408.77 77.7023 0
2447.62 77.7023 0
2486.47 77.7023 0
2525.32 77.7023 0
2564.17 77.7023 0
2603.03 77.7023 0
2641.88 77.7023 0
2680.73 77.7023 0
2719.58 77.7023 0
2758.43 77.7023 0
2797.28 77.7023 0
2836.13 77.7023 0
2874.98 77.7023 0
2913.83 77.7023 0
2952.69 77.7023 0
2991.54 77.7023 0
3030.39 77.7023 0
3069.24 77.7023 0
3108.09 77.7023 0
3146.94 77.7023 0
3185.79 77.7023 0
3224.64 77.7023 0
3263.5 77.7023 0
3302.35 77.7023 0
3341.2 77.7023 0
3380.05 77.7023 0
3418.9 77.7023 0
3457.75 77.7023 0
3496.6 77.7023 0
3535.45 77.7023 0
3574.3 77.7023 0
3613.16 77.7023 0
3652.01 77.7023 0
3690.86 77.7023 0
3729.71 77.7023 0
3768.56 77.7023 0
3807.41 77.7023 0
3846.26 77.7023 0
3885.11 77.7023 0
3923.96 77.7023 0
3962.82 77.7023 0
4001.67 77.7023 0
4040.52 77.7023 0
4079.37 77.7023 0
4118.22 77.7023 0
4157.07 77.7023 0
4195.92 77.7023 0
4234.77 77.7023 0
4273.62 77.7023 0
4312.48 77.7023 0
4351.33 77.7023 0
4390.18 77.7023 0
4429.03 77.7023 0
4467.88 77.7023 0
4506.73 77.7023 0
4545.58 77.7023 0
4584.43 77.7023 0
4623.28 77.7023 0
4662.14 77.7023 0
4700.99 77.7023 0
4739.84 77.7023 0
4778.69 77.7023 0
4817.54 77.7023 0
4856.39 77.7023 0
0 116.553 0
38.8511 116.553 0
77.7023 116.553 0
116.553 116.553 0
155.405 116.553 0
194.256 116.553 0
233.107 116.553 0
271.958 116.553 0
310.809 116.553 0
349.66 116.553 0
388.511 116.553 0
427.362 116.553 0
466.214 116.553 0
505.065 116.553 0
543.916 116.553 0
582.767 116.553 0
621.618 116.553 0
660.469 116.553 0
699.32 116.553 0
738.172 116.553 0
777.023 116.553 0
815.874 116.553 0
854.725 116.553 0
893.576 116.553 0
932.427 116.553 0
971.278 116.553 0
1010.13 116.553 0
1048.98 116.553 0
1087.83 116.553 0
1126.68 116.553 0
1165.53 116.553 0
1204.39 116.553 0
1243.24 116.553 0
1282.09 116.553 0
1320.94 116.553 0
1359.79 116.553 0
1398.64 116.553 0
1437.49 116.553 0
1476.34 116.553 0
1515.19 116.553 0
1554.05 116.553 0
1592.9 116.553 0
1631.75 116.553 0
1670.6 116.553 0
1709.45 116.553 0
1748.3 116.553 0
1787.15 116.553 0
1826 116.553 0
1864.85 116.553 0
1903.71 116.553 0
1942.56 116.553 0
1981.41 116.553 0
2020.26 116.553 0
2059.11 116.553 0
2097.96 116.553 0
2136.81 116.553 0
2175.66 116.553 0
2214.51 116.553 0
2253.37 116.553 0
2292.22 116.553 0
2331.07 116.553 0
2369.92 116.553 0
2408.77 116.553 0
2447.62 116.553 0
2486.47 116.553 0
2525.32 116.553 0
2564.17 116.553 0
2603.03 116.553 0
2641.88 116.553 0
2680.73 116.553 0
2719.58 116.553 0
2758.43 116.553 0
2797.28 116.553 0
2836.13 116.553 0
2874.98 116.553 0
2913.83 116.553 0
2952.69 116.553 0
2991.54 116.553 0
3030.39 116.553 0
3069.24 116.553 0
3108.09 116.553 0
3146.94 116.553 0
3185.79 116.553 0
3224.64 116.553 0
3263.5 116.553 0
3302.35 116.553 0
3341.2 116.553 0
3380.05 116.553 0
3418.9 116.553 0
3457.75 116.553 0
3496.6 116.553 0
3535.45 116.553 0
3574.3 116.553 0
3613.16 116.553 0
3652.01 116.553 0
3690.86 116.553 0
3729.71 116.553 0
3768.56 116.553 0
3807.41 116.553 0
3846.26 116.553 0
3885.11 116.553 0
3923.96 116.553 0
3962.82 116.553 0
4001.67 116.553 0
4040.52 116.553 0
4079.37 116.553 0
4118.22 116.553 0
4157.07 116.553 0
4195.92 116.553 0
4234.77 116.553 0
4273.62 116.553 0
4312.48 116.553 0
4351.33 116.553 0
4390.18 116.553 0
4429.03 116.553 0
4467.88 116.553 0
4506.73 116.553 0
4545.58 116.553 0
4584.43 116.553 0
4623.28 116.553 0
4662.14 116.553 0
4700.99 116.553 0
4739.84 116.553 0
4778.69 116.553 0
4817.54 116.553 0
4856.39 116.553 0
0 155.405 0
38.8511 155.405 0
77.7023 155.405 0
116.553 155.405 0
155.405 155.405 0
194.256 155.405 0
233.107 155.405 0
271.958 155.405 0
310.809 155.405 0
349.66 155.405 0
388.511 155.405 0
427.362 155.405 0
466.214 155.405 0
505.065 155.405 0
543.916 155.405 0
582.767 155.405 0
621.618 155.405 0
660.469 155.405 0
699.32 155.405 0
738.172 155.405 0
777.023 155.405 0
815.874 155.405 0
854.725 155.405 0
893.576 155.405 0
932.427 155.405 0
971.278 155.405 0
1010.13 155.405 0
1048.98 155.405 0
1087.83 155.405 0
1126.68 155.405 0
1165.53 155.405 0
1204.39 155.405 0
1243.24 155.405 0
1282.09 155.405 0
1320.94 155.405 0
1359.79 155.405 0
1398.64 155.405 0
1437.49 155.405 0
1476.34 155.405 0
1515.19 155.405 0
1554.05 155.405 0
1592.9 155.405 0
1631.75 155.405 0
1670.6 155.405 0
1709.45 155.405 0
1748.3 155.405 0
1787.15 155.405 0
1826 155.405 0
1864.85 155.405 0
1903.71 155.405 0
1942.56 155.405 0
1981.41 155.405 0
2020.26 155.405 0
2059.11 155.405 0
2097.96 155.405 0
2136.81 155.405 0
2175.66 155.405 0
2214.51 155.405 0
2253.37 155.405 0
2292.22 155.405 0
2331.07 155.405 0
2369.92 155.405 0
2408.77 155.405 0
2447.62 155.405 0
2486.47 155.405 0
2525.32 155.405 0
2564.17 155.405 0
2603.03 155.405 0
2641.88 155.405 0
2680.73 155.405 0
2719.58 155.405 0
2758.43 155.405 0
2797.28 155.405 0
2836.13 155.405 0
2874.98 155.405 0
2913.83 155.405 0
2952.69 155.405 0
2991.54 155.405 0
3030.39 155.405 0
3069.24 155.405 0
3108.09 155.405 0
3146.94 155.405 0
3185.79 155.405 0
3224.64 155.405 0
3263.5 155.405 0
3302.35 155.405 0
3341.2 155.405 0
3380.05 155.405 0
3418.9 155.405 0
3457.75 155.405 0
3496.6 155.405 0
3535.45 155.405 0
[...]
POINT_DATA 31752
SCALARS Density double 
LOOKUP_TABLE default
0.999393
1.00091
0.998774
0.999197
0.999646
0.99962
1.0008
0.99914
1.00088
1.00071
0.997423
0.999421
1.00025
1.00006
1.00072
1.00064
0.999306
0.999371
0.999572
1.00026
1.00186
1.00084
0.999094
1.00168
0.999953
0.998937
0.999721
1.00187
0.999227
1.00064
1.00234
0.999664
1
1.0017
1.00136
1.00076
1.00275
1.00248
1.00229
1.00168
1.00082
1.00269
1.00241
1.00335
1.00417
1.00361
1.0044
1.0036
1.00378
1.00427
1.00388
1.00508
1.00471
1.00466
1.00586
1.00616
1.00642
1.0045
1.00505
1.00693
1.00569
1.00462
1.00627
1.00738
1.00576
1.00612
1.00516
1.00448
1.0059
1.00586
1.00469
1.00549
1.00438
1.00378
1.00496
1.00239
1.0058
1.00475
1.00294
1.00514
1.00445
1.00353
1.00239
1.00256
1.00445
1.00169
1.00124
1.00165
1.00075
1.00061
1.00236
1.00233
1.00079
1.00075
1.00083
1.00167
1.00156
1.00011
1.00042
1.00175
1.00014
1.00067
1.00124
1.00026
1.0012
0.998241
1.00079
1.00191
0.999668
0.998812
0.999343
0.999872
0.999572
0.999288
0.998657
1.00176
1.00111
0.998778
0.998207
0.999213
1.00062
0.999461
0.999364
0.998667
1.0004
1.00077
1.0007
1.00101
1.00108
1.00062
0.999191
0.999005
1.00055
0.999647
0.999682
1.00047
1.00119
0.999312
0.997607
1.00129
0.997979
0.999353
1.00232
0.998962
0.998176
1.00041
1.00072
1.00063
1.00042
1.00159
1.00003
0.997823
1.00053
1.00237
1.00096
0.997861
0.999391
1.00177
1.00105
1.0006
1.00195
0.999781
1.00093
1.00073
1.00184
1.00203
1.00028
1.0006
1.00347
1.00349
1.00168
1.00193
1.00278
1.0036
1.00258
1.00392
1.00299
1.0019
1.00162
1.003
1.00202
1.00258
1.00437
1.00408
1.0025
1.00397
1.00555
1.00487
1.0034
1.00526
1.00228
1.00381
1.00335
1.0028
1.00475
1.00467
1.00505
1.00413
1.00373
1.00499
1.00235
1.00192
1.00291
1.00379
1.00301
1.00256
1.00227
1.002
1.00154
1.00171
1.00254
1.00244
0.999781
1.00073
1.00156
1.00121
1.00145
1.00035
0.999137
1.00077
1.00101
1.00087
0.999954
0.999054
1.00125
1.00141
0.998305
0.999735
1.00092
0.998527
0.998978
1.00041
1.00134
1.00009
1.00006
1.00085
1.00013
0.99868
0.999266
1.00129
0.999269
0.998986
1.00113
1.00139
0.99708
1.00012
1.00077
1.00015
1.00072
1.00057
1.00011
1.0012
1.00004
0.999847
0.999272
0.99995
1.00142
1.0013
0.998434
1.00013
0.999903
0.999372
1.00116
1.00012
0.999928
1.00105
1.00018
1.00007
0.998761
1.00052
1.00158
1.00068
0.999399
0.999304
1.00023
1.00057
1.00055
1.00227
0.999527
0.995764
0.998806
1.00263
1.00228
1.00131
1.00028
0.99937
0.998551
0.999783
1.0017
1.00158
1.00096
1.00078
1.00183
1.00059
1.0004
1.00129
1.00171
1.00098
1.00269
1.00282
0.999441
1.0027
1.00271
1.00114
1.00057
1.00137
1.0028
1.00319
1.00126
1.00155
1.00234
1.00249
1.00193
1.00265
1.00217
1.00127
1.00241
1.00289
1.0031
1.0022
1.0018
1.00272
1.00153
1.0018
1.00219
1.00282
1.00191
1.00203
1.00271
1.00348
0.999416
0.999528
1.00106
1.00166
1.00172
1.00257
1.00012
1.00104
0.999088
1.00061
1.00076
1.00036
1.00192
0.999824
1.00174
1.00073
0.998952
1.00139
1.00011
0.999824
1.00058
0.998328
1.00092
1.00067
1.00041
1.00072
0.998474
1.00042
1.00069
0.999237
0.998293
1.00045
1.00017
0.999353
1.00062
0.999389
1.00018
1.00088
0.999189
1.00126
1.00058
1.00139
1.00176
1.00097
0.998838
0.998826
1.0008
1.00127
0.997892
0.9991
0.998375
0.998313
0.999734
0.999334
0.999898
1.00137
1.00026
0.998821
0.99985
1.00181
1.00129
0.998394
0.999203
1.00019
0.998653
1.00157
1.00129
0.999007
0.999708
1.00024
0.99789
1.00069
1.00157
1.00031
1.00029
1.00052
1.00047
1.0012
1.0002
1.00006
0.999569
1.00146
1.00062
1.00052
1.00038
1.00064
1.00266
1.00028
0.997964
1.00111
1.00173
1.00158
1.00074
1.00075
0.999394
1.00189
1.00133
1.00134
1.00318
1.00112
1.00259
1.00355
1.00247
1.00187
1.00187
1.00188
1.00349
1.00307
1.00105
1.00186
1.00239
0.999488
1.00194
1.00378
1.00275
1.00114
1.00026
1.00005
1.00199
1.00366
1.00203
1.00042
1.00134
1.00252
1.00316
1.00117
1.00152
1.00287
1.00089
1.00118
1.00239
1.0016
1.00242
1.00112
1.00002
1.00177
1.00018
1.00172
1.00201
1.00029
1.00104
1.00074
1.00082
1.0013
1.00022
1.00124
0.999476
1.00036
1.0007
1.00085
1.00093
1.00074
0.999858
0.999605
0.999719
1.00132
1.00067
1.00111
1.00038
0.999847
0.999237
1.00002
0.99979
1.00077
0.999536
1.00111
1.00173
1.00054
0.999089
1.00079
1.00005
0.998859
0.999725
1.00089
1.00009
1.00116
1.00046
0.998892
1.00105
0.999851
0.99986
1.00028
1.00091
0.999557
1.00106
1.00108
0.99888
0.999184
1.00022
1.00049
1.00138
1.00043
1.00063
0.998413
1.00011
0.99859
0.998706
0.998694
1.0011
1.00124
1.00103
0.999476
1.00115
1.00107
1
0.999049
0.999696
1.00224
0.999622
1.00007
1.0008
1.00027
1.0025
1.00093
1.00124
1.00079
1.00058
1.00134
1.00167
1.00174
0.999853
1.00223
1.00205
0.999765
1.00153
1.00123
1.0031
1.00251
1.00288
1.00185
1.00191
1.0017
1.00085
1.00144
1.00262
1.00214
1.00311
1.00181
1.00159
1.00225
1.00187
1.00272
1.00322
1.00098
1.00196
1.00241
1.00347
1.00173
1.00117
1.00301
1.0015
1.00058
1.00286
1.00062
1.00022
1.00242
1.00261
1.00097
1.00215
1.00143
1.00055
1.0005
1.00198
1.00134
1.00099
1.00091
1.00022
1.00202
1.00076
0.999319
0.999904
0.999493
0.999653
1.00091
0.999892
1.00074
1.00019
1.00068
1.00093
1.00022
1.00187
1.00053
0.998188
0.998899
0.999622
1.00137
1.00056
0.999885
1.00041
0.998429
1.00091
1.00138
0.998511
0.998045
1.00018
1.00025
1.00155
0.998112
0.99929
1.00025
1.00105
1.00147
1.00021
1.00128
1.00204
1.00156
0.998806
0.999389
1.00068
1.00154
0.999589
0.999848
0.999659
0.999563
1.00227
1.00088
0.998982
1.00071
1.00005
0.9994
1
1.00094
0.999951
0.999508
1.00058
1.00186
0.999927
0.99862
1.00149
1.00112
1.00196
1.00076
0.999826
1.0016
1.00055
1.00234
1.00065
1.00149
1.00103
1.00223
1.00238
1.00151
1.00279
1.00137
1.00133
1.00273
1.00262
1.00212
1.00258
1.00166
1.00217
1.00261
1.00205
1.00153
1.00287
1.00254
1.00218
1.00108
1.00233
1.00106
1.00309
1.0028
1.0033
1.0027
1.0024
1.00282
1.00315
1.00323
1.00253
1.00365
1.00235
0.999712
1.00215
1.00269
1.00163
1.00162
1.00287
1.00174
1.00172
1.00169
1.00063
1.00083
1.00257
1.00197
1.00102
1.0009
1.00279
1.00023
1.00117
0.999958
1.0018
1.00016
1.00056
1.00108
1.00179
1.00092
1.00125
0.996986
1.00058
1.00069
1.0009
1.00053
0.99894
0.999911
0.999856
1.00019
1.00177
1.00079
1.00089
1.0005
0.999146
0.99937
1.00103
0.998901
1.00047
0.997696
1.00001
1.00021
0.99962
0.999466
1.00019
1.00118
1.00074
1.00058
0.99987
0.998697
0.999711
0.999377
1.0006
1.00103
1.00033
1.00025
0.99847
0.997799
0.999731
1.00041
0.99964
0.998981
1.00053
1.00073
1.00024
0.999819
0.999629
0.998308
1.00012
1.00012
0.999586
0.999288
1.00089
1.00177
0.999504
1.00073
1.00012
0.998447
1.00128
1.00213
0.999158
1.0006
1.00227
0.999874
1.00114
1.00174
1.00091
1.0025
1.00106
1.00114
1.00232
1.0026
0.999513
1.00181
1.00239
1.00027
1.00319
1.00175
1.00147
1.00311
1.00283
1.00278
1.00136
1.00215
1.00201
1.00211
1.00319
1.00286
1.00219
1.00312
1.0037
1.00252
1.00095
1.00233
1.00144
1.00307
1.00292
1.00224
1.00269
1.00161
1.00147
1.00298
1.00146
1.00159
1.0028
1.00076
1.00241
1.0029
1.00305
1.00081
1.00241
1.0017
1.00206
1.00166
1.00189
1.00261
1.002
1.00121
1.0013
1.00199
0.999954
1.00121
1.0017
1.00119
1.00182
1.00131
1.00088
1.00068
1.00078
1.00187
1.00057
1.00015
0.999552
1.00127
0.999955
0.998613
1.00059
1.00171
0.999519
1.0006
1.00107
0.998119
1.00022
1.00041
1.00081
0.997762
1.00019
0.999755
0.998156
1.00095
0.999882
1.00015
0.999409
1.00031
1.00055
1.00136
0.999518
0.997045
1.00062
1.0009
1.00036
0.999459
1.00082
0.998748
0.999169
0.999389
1.00049
1.00042
0.999605
0.997869
0.998144
1.00122
1.00162
0.999344
1.00106
1.00056
1.00135
1.00002
0.999613
0.999989
0.999977
1.00125
1.00042
0.998524
1.00022
1.002
1.00042
0.99998
1.0015
1.00114
1.00208
0.998664
1.00104
1.00256
1.00165
1.0015
1.00119
1.00276
1.00193
1.00111
1.00171
1.00294
1.00275
1.00157
1.00229
1.00185
1.00224
1.00299
1.00182
1.00314
1.00144
1.0018
1.00327
1.00322
1.00193
1.00218
1.00173
1.00282
1.00163
1.00198
1.00326
1.00156
1.00172
1.00253
1.00332
1.00289
1.002
1.00236
1.00246
1.00231
1.00278
1.00345
1.00236
1.00298
1.00287
1.00124
1.00295
1.00283
1.00171
1.00334
1.00203
1.00099
1.0012
1.00269
1.00024
1.00121
1.0014
1.00267
1.00174
1.00159
1.00069
0.999865
1.00146
1.00195
0.999885
1.00149
1.00211
1.00014
0.9992
1.00102
1.00179
1.00002
0.998282
0.998819
0.999323
1.00114
1.0003
1.00044
0.998779
1.00025
0.998013
1.00277
1.00005
0.998777
1.00095
0.998958
0.998723
0.999122
0.998894
0.999329
1.00011
1.00123
1.00012
0.998446
0.997807
0.999061
1.00038
1.00095
1.00174
1.00161
0.999095
1.00162
0.999181
0.998906
0.998714
0.999563
1.0011
1.00133
1.00145
1.00194
0.998997
1.00226
1.00113
1.00055
1.00029
1.00026
1.00143
1.00199
1.00064
1.00149
1.00167
0.999712
1.00063
0.9999
1.00038
1.00154
1.00129
1.00165
1.00261
1.0011
1.00203
1.00232
1.00258
1.0027
1.00181
1.00148
1.0028
1.00261
1.00309
1.00249
1.00218
1.00282
1.00313
1.00147
1.00207
1.00245
1.00151
1.00298
1.00296
1.00219
1.0025
1.00293
1.00256
1.003
1.00332
1.00251
1.00262
1.00302
1.00286
1.00269
1.00137
1.00252
1.00239
1.00295
1.0033
1.00259
1.0017
1.00321
1.00205
1.0024
1.00263
1.00246
1.00313
1.00276
1.00193
1.00185
1.00271
1.00199
1.00115
1.00038
1.00203
1.00233
1.00129
1.00221
1.00133
1.00035
1.00148
1.00082
1.00098
1.00155
1.00006
0.999298
1.00061
0.999826
1.00142
0.999901
1.00126
0.999224
1.00003
1.00066
1.00026
1.00148
1.00133
0.999503
0.998911
1.00139
1.00142
1.00114
0.999796
1.00112
0.999915
0.999273
0.997397
1.00029
1.00111
0.998966
1.00122
0.999368
1.00101
1.00145
0.999847
0.999943
0.999257
1.00014
0.998283
1.00024
1.00166
1.00136
1.00048
0.998363
1.00074
1.00045
0.999672
1.00096
0.999934
0.999302
1.00098
0.998702
1.00102
1.00078
0.998588
1.00065
1.00243
1.00104
0.999899
1.00205
1.00193
1.00133
1.00056
1.00162
1.00156
1.00217
1.00174
1.00167
1.00092
1.00184
1.00217
1.00203
1.00254
1.00178
1.00184
1.00198
1.00181
1.00267
1.00159
1.00172
1.00259
1.00319
1.00293
1.003
1.00246
1.00198
1.00344
1.00284
1.00356
1.00316
1.0022
1.00365
1.00218
1.00209
1.00236
1.00327
1.00333
1.00341
1.00297
1.00319
1.002
1.00336
1.00302
1.00293
1.00244
1.00312
1.00253
1.00202
1.00263
1.00321
1.00215
1.00283
1.00214
1.00212
1.00227
1.00147
1.00298
1.0034
1.00201
1.00273
1.00303
1.00231
1.00039
1.00031
1.00144
1.00193
0.999454
1.00117
1.00183
1.00233
1.00057
1.00019
1.00184
1.00078
0.999803
0.999913
1.00053
1.00159
1.00179
1.00057
0.999129
0.997817
1.00159
1.0009
1.0009
1.00003
1.00105
0.998346
1.00148
1.00167
0.999258
1.00012
1.00161
0.999901
0.999744
0.999949
1.0004
1.00067
0.998431
1.00006
1.00099
1.0005
0.999285
0.999827
1.00013
0.999625
1.00105
1.00044
1.00024
1.00084
1.00005
1.00159
1.00066
0.999845
0.998131
0.998157
1.00222
1.00029
0.9993
0.999485
1.00132
1.00162
0.999906
0.999023
1.00085
1.0025
0.999658
1.00139
1.00168
1.00313
1.00251
1.00082
1.00192
1.0018
0.999014
1.00186
1.00303
1.00215
1.00329
1.00277
1.0021
1.00131
1.00223
1.00369
1.00248
1.00294
1.00273
1.00233
1.0029
1.00338
1.00327
1.0032
1.00212
1.00226
1.00254
1.00231
1.00241
1.00293
1.00346
1.00277
1.00334
1.00359
1.00243
1.00148
1.00333
1.00288
1.0035
1.00267
1.0028
1.00292
1.00361
1.00268
1.00238
1.00341
1.00385
1.00337
1.00175
1.00271
1.0023
1.00261
1.00278
1.00329
1.00147
1.00178
1.00233
1.00245
1.00277
1.00247
1.00129
0.999432
1.00265
1.0024
1.00249
1.00076
1.00211
1.00228
1.00094
1.00173
1.00042
1.00052
0.99954
1.00236
1.00092
1.00068
1.00035
1.00148
1.0001
0.999065
0.999287
0.999905
1.00044
1.00054
1.00054
0.997873
0.999659
0.998708
1.00007
1.00197
1.00204
1.00145
1.00012
1.00037
0.998686
1.00176
0.998438
0.999594
0.999146
0.999882
1.00134
0.999432
0.999084
1.00002
0.998197
1.00009
1.0006
1.00119
1.00002
1.00146
1.00085
1.00124
0.999309
0.998852
1.00048
1.00175
1.00101
1.00142
0.999551
1.00152
1.00049
1.00005
1.00215
1.00133
1.00163
1.00026
1.00082
1.00187
1.00249
1.00087
1.00195
1.0021
1.00297
1.00206
1.00313
1.00223
1.00335
1.00291
1.00202
1.00219
1.00284
1.00237
1.00305
1.00329
1.00275
1.00297
1.00274
1.00199
1.00202
1.00316
1.00229
1.00276
1.00237
1.00276
1.00369
1.00312
1.00301
1.00238
1.00355
1.00256
1.00278
1.00277
1.00233
1.0028
1.00331
1.0021
1.00277
1.00233
1.00272
1.00286
1.00355
1.00276
1.00265
1.00275
1.00241
1.00242
1.00328
1.0027
1.00181
1.00294
1.00187
1.0017
1.00125
1.00179
1.00239
1.00252
1.00281
1.00206
1.00259
1.00212
1.00042
1.00134
1.00138
1.00127
1.00114
1.0016
1.0005
0.998755
1.00124
1.0018
1.00097
1.00022
1.00047
1.0002
1.00182
1.00061
0.99892
1.00202
1.00037
0.99965
0.999809
0.999096
0.998628
1.00042
0.999106
0.998751
1.00124
1.00115
1.0008
0.997782
0.999947
1.00042
1.00026
0.999762
1.00133
1.00158
0.996454
0.9994
1.00147
0.998375
1.00139
0.998929
1.00127
0.999752
1.00008
0.999096
1.00201
0.99855
0.999834
1.00015
0.998937
1.00061
1.00115
1.00075
1.0002
1.001
1.0018
1.00134
1.00059
1.00083
1.00252
1.00235
1.00275
1.00147
1.00028
1.00119
1.00342
1.00256
1.00126
1.00314
1.0032
1.00319
1.00144
1.00252
1.00286
1.00284
1.00299
1.00203
1.00212
1.00287
1.00242
1.00266
1.00248
1.00288
1.00325
1.00261
1.00276
1.00308
1.00246
1.00316
1.00302
1.00282
1.00303
1.00233
1.00255
1.00313
1.00284
1.00263
1.00241
1.00268
1.00295
1.00324
1.00239
1.00252
1.0027
1.00293
1.00284
1.00303
1.00218
1.0026
1.00157
1.00294
1.00339
1.00286
1.00254
1.00279
1.00331
1.00198
1.00229
1.00341
1.00248
1.00256
1.00246
1.00291
1.00184
1.00171
1.00232
1.00159
0.999674
1.00192
1.00184
1.00054
1.0019
1.00194
1.00156
0.999805
0.999639
0.999613
0.999935
0.999721
1.00021
1.00027
1.00037
0.999565
1.0001
1.00032
0.998462
1.00156
1.00168
1.0015
0.999526
0.997042
1.00229
1.00128
0.999768
0.996263
1.00009
1.00112
1.00121
1.00023
1.00075
1.00012
0.999018
1.00095
1.00087
1.00025
1.00146
1.00126
0.999376
0.997655
0.999726
0.998892
1.00067
0.998838
0.99911
1.00222
1.00047
0.999442
1.00191
0.998714
1.00076
1.00169
0.999671
1.00221
1.00162
1.00159
1.00235
1.00213
1.002
1.00293
1.00105
1.00245
1.00191
1.00268
1.00252
1.00193
1.00156
1.00318
1.00221
1.00313
1.00213
1.00319
1.00333
1.00198
1.0026
1.00266
1.00339
1.00311
1.00309
1.00231
1.00221
1.00297
1.0029
1.00284
1.00325
1.0031
1.00268
1.00261
1.00195
1.00257
1.00233
1.00296
1.00261
1.00216
1.00263
1.0032
1.00172
1.00276
1.00338
1.00212
1.00297
1.00288
1.0021
1.00301
1.00224
1.0023
1.00267
1.00341
1.00352
1.0035
1.00228
1.00163
1.00363
1.00284
1.00259
1.00278
1.00298
1.00297
1.00263
1.00292
1.00229
1.00188
1.00259
1.0028
1.00168
1.00045
1.00211
1.00189
1.00137
1.00088
1.00134
1.00167
1.00084
1.00079
1.00021
1.00093
1.00153
1.00111
1.0006
0.997709
1.00103
1.00072
1.00023
0.999958
0.999786
0.999686
1.0012
1.00073
1.00076
0.998865
0.998559
1.00179
1.0011
1.00036
1.00015
1.00006
1.00057
0.998152
1.00063
1.00163
0.999874
0.99855
0.997311
1.00153
1.00106
1.00087
0.998595
1.00097
0.997984
1.00081
1.0013
1.0003
1.00115
1.00107
1.00125
1.00156
0.999587
1.00211
1.00217
1.00033
1.00093
1.00271
1.00265
1.00147
1.00273
1.00263
1.00242
1.00341
1.00202
1.00111
1.00346
1.00297
1.00308
1.00193
1.00296
1.00324
1.00239
1.00292
1.00284
1.00335
1.00251
1.00321
1.00333
1.00224
1.00276
1.00274
1.00313
1.00268
1.0026
1.00284
1.00298
1.00282
1.00249
1.00255
1.00262
1.00272
1.00266
1.00281
1.00233
1.00257
1.00267
1.00267
1.00299
1.00246
1.00266
1.00242
1.00296
1.00282
1.00324
1.00265
1.00242
1.00241
1.00277
1.00191
1.00289
1.00297
1.00307
1.00302
1.00292
1.00293
1.00272
1.00303
1.00275
1.00288
1.0021
1.00178
1.00235
1.00197
1.00224
1.00303
1.00185
1.00217
1.00141
1.00127
1.00153
1.00284
1.00144
1.00077
1.00179
1.00086
1.00131
1.00176
1.0004
1.00177
1.00063
0.999648
1.0012
1.00172
0.997688
0.998164
1.00079
1.0013
1.00072
0.999254
0.997426
1.00022
1.0001
0.999756
1.00134
1.00077
1.00055
1.00027
0.999112
0.998465
1.00091
1.00122
0.999972
1.00037
1.00031
1.00063
0.999892
1.00188
0.999018
1.00089
1.00185
1.00121
1.00107
1.00063
1.00138
1.0026
0.999075
1.00076
1.00267
1.00217
1.0004
1.00143
1.0024
0.999051
1.00144
1.00339
1.00203
1.00186
1.00264
1.00285
1.00171
1.00277
1.00248
1.00252
1.00365
1.00291
1.00294
1.00279
1.00336
1.00312
1.00305
1.00222
1.00309
1.00329
1.00274
1.00255
1.00256
1.00276
1.00245
1.0022
1.00294
1.00282
1.00219
1.00263
1.00315
1.00255
1.0022
1.00271
1.00273
1.00271
1.00293
1.00282
1.00281
1.00231
1.00298
1.00302
1.00244
1.00286
1.00245
1.00255
1.00268
1.0028
1.00334
1.00198
1.00326
1.00248
1.00259
1.00267
1.00247
1.00261
1.00339
1.00243
1.00344
1.00274
1.00206
1.00236
1.00363
1.00254
1.00212
1.00252
1.00273
1.00175
1.002
1.00289
1.00132
1.00216
1.00327
1.00188
1.00085
1.00183
1.00132
1.00057
0.999893
1.00107
0.99851
1.00042
0.999796
1.00199
0.999075
1.00044
1.0005
0.999284
1.0014
1.0002
0.999118
0.999546
0.999267
1.00267
1.0016
0.998728
0.997569
1.0007
1.00046
0.999686
1.00046
1.00034
1.00104
0.999406
1.00112
0.999873
1.00002
1.00083
1.00027
0.999384
1.00022
0.99915
1.00199
1.00132
0.999309
1.00118
1.00058
1.00117
1.00149
1.00144
1.00216
1.00062
1.00258
1.00117
1.00041
1.00154
1.00101
1.00102
1.00319
1.00315
1.00217
1.00249
1.0029
1.00243
1.00291
1.00351
1.00123
1.00249
1.00336
1.00244
1.00311
1.00209
1.00318
1.00215
1.00314
1.00232
1.00251
1.00291
1.00231
1.00293
1.00294
1.00277
1.00212
1.00265
1.00236
1.00249
1.00226
1.00252
1.00247
1.00192
1.0025
1.00232
1.00233
1.00222
1.00253
1.00268
1.00225
1.00278
1.00264
1.00289
1.00239
1.00247
1.00286
1.0025
1.00295
1.00287
1.00262
1.00235
1.00308
1.0027
1.00211
1.00261
1.00281
1.00239
1.00302
1.00307
1.00325
1.00256
1.00281
1.00203
1.00212
1.00285
1.0034
1.00235
1.00228
1.00255
1.00306
1.00209
1.00151
1.00025
1.00175
1.00136
1.00192
1.00216
1.00288
0.999719
0.998548
1.00192
1.00102
1.00037
1.00201
0.999168
1.00094
1.00104
1.00131
1.00064
0.998183
1.00156
0.999675
1.00041
1.00111
0.999132
0.997617
1.00093
1.00093
1.00018
1.00126
0.999331
0.998495
1.00014
1.00039
1.00064
1.00034
0.99933
1.00079
0.998631
0.999804
1.00013
1.00124
1.00172
0.99972
1.0014
1.00136
0.99987
1.00125
1.00145
1.0019
1.00045
1.00264
1.00208
1.00162
1.00288
1.00203
1.00181
1.00323
1.00316
1.00224
1.00208
1.00226
1.00188
1.00324
1.00268
1.00225
1.00308
1.00279
1.00277
1.00276
1.0027
1.00248
1.00276
1.00233
1.00279
1.00239
1.00294
1.0028
1.00237
1.0028
1.00273
1.00207
1.00226
1.00244
1.0023
1.00258
1.00217
1.00221
1.00259
1.0025
1.00221
1.0026
1.00244
1.00222
1.00219
1.00238
1.00253
1.00258
1.00226
1.00252
1.00268
1.00284
1.00269
1.00223
1.00239
1.00245
1.00241
1.00265
1.00325
1.00325
1.00317
1.00137
1.00275
1.00288
1.0026
1.0026
1.00311
1.00252
1.00201
1.00319
1.00338
1.0027
1.00328
1.00288
1.00207
1.00183
1.00224
1.00126
1.00202
1.00294
1.00135
1.00135
1.00076
1.00201
1.00229
1.00151
1.00098
1.00124
0.999104
1.0012
1.00183
1.00089
1.00065
0.99887
0.99916
0.997793
1.00078
1.00087
0.998159
1.0003
0.999117
1.0003
1.00035
1.00003
1.00086
1.00033
0.999871
1.00001
1.00111
1.0003
1.00177
1.00005
0.999062
1.00097
1.00159
1.0008
1.00069
1.00149
1.00003
0.999281
1.00081
1.00183
1.0008
1.00116
1.00164
1.00202
1.0007
1.00136
1.00258
1.0021
1.00212
1.00313
1.00255
1.00187
1.0023
1.0027
1.0031
1.00298
1.00275
1.0033
1.00263
1.0034
1.00327
1.00271
1.00247
1.00272
1.00313
1.00203
1.0027
1.00279
1.00265
1.00256
1.00228
1.00257
1.00218
1.00229
1.00242
1.00256
1.00235
1.00252
1.0021
1.00256
1.00246
1.00245
1.0025
1.00239
1.00231
1.00241
1.00248
1.00226
1.00235
1.00223
1.00221
1.00233
1.00239
1.00233
1.00237
1.0024
1.00259
1.00256
1.00265
1.00288
1.00274
1.00261
1.00258
1.00253
1.00284
1.00263
1.00307
1.00264
1.00303
1.0027
1.00248
1.00316
1.00273
1.00309
1.00253
1.002
1.00301
1.00313
1.00325
1.00192
1.00195
1.00205
1.00225
1.0021
1.00283
1.00274
1.00168
0.999286
0.999434
1.0011
1.00051
0.999968
1.00146
1.00099
1.00151
1.00102
1.00057
1.00159
0.999065
0.999781
1.00075
0.998605
0.998222
1.00119
1.0014
1.00035
0.999754
1.00024
0.999488
1.00004
1
0.999423
0.999163
1.00039
1.00206
0.999535
0.998195
1.00151
1.00171
1.00063
1.00129
1.00049
0.998149
1.00111
1.00086
1.00134
1.00159
1.00071
1.00218
1.00243
1.00156
1.00181
1.00295
1.0024
1.0023
1.00338
1.00332
1.0024
1.00226
1.00272
1.00286
1.0028
1.00272
1.00292
1.00307
1.00295
1.00282
1.00261
1.0026
1.00243
1.00296
1.00249
1.00237
1.0028
1.0024
1.00237
1.00221
1.00224
1.0019
1.00252
1.00235
1.0025
1.00229
1.00215
1.00237
1.00227
1.00232
1.00235
1.00217
1.0023
1.0021
1.00225
1.00228
1.00211
1.00225
1.00223
1.00213
1.00232
1.00228
1.00193
1.00238
1.00206
1.00237
1.00262
1.00257
1.00271